<?xml version="1.0" encoding="UTF-8"?>

<!-- generated on 2022-02-23 15:41:43 by Eclipse SUMO sumo Version 1.10.0
<configuration xmlns:xsi="http://www.w3.org/2001/XMLSchema-instance" xsi:noNamespaceSchemaLocation="http://sumo.dlr.de/xsd/sumoConfiguration.xsd">

    <input>
        <net-file value="net_config/manhattan.net.xml"/>
        <route-files value="net_config/random_trips.trips.xml"/>
        <additional-files value="net_config/add.add.xml"/>
    </input>

    <output>
        <tripinfo-output value="net_config/tripinfo.xml"/>
    </output>

    <time>
        <step-length value="1"/>
    </time>

    <processing>
        <time-to-teleport value="0"/>
    </processing>

    <taxi_device>
        <device.taxi.dispatch-algorithm value="traci"/>
        <device.taxi.idle-algorithm value="randomCircling"/>
    </taxi_device>

    <traci_server>
        <remote-port value="57620"/>
    </traci_server>

    <gui_only>
        <gui-settings-file value="net_config/gui-settings.cfg"/>
        <tracker-interval value="1"/>
    </gui_only>

</configuration>
-->

<tripinfos xmlns:xsi="http://www.w3.org/2001/XMLSchema-instance" xsi:noNamespaceSchemaLocation="http://sumo.dlr.de/xsd/tripinfo_file.xsd">
    <tripinfo id="driver_1" depart="0.00" departLane="gneE390_0" departPos="3.73" departSpeed="0.00" departDelay="0.00" arrival="8.00" arrivalLane="gneE390_0" arrivalPos="55.27" arrivalSpeed="13.38" duration="8.00" routeLength="51.54" waitingTime="0.00" waitingCount="0" stopTime="0.00" timeLoss="4.05" rerouteNo="8" devices="tripinfo_driver_1 taxi_driver_1" vType="driver" speedFactor="0.97" vaporized="traci">
        <taxi customers="0" occupiedDistance="0.00" occupiedTime="0.00"/>
    </tripinfo>
    <personinfo id="customer_1" depart="6.00" type="DEFAULT_PEDTYPE">
        <ride waitingTime="2.00" vehicle="NULL" depart="-1" arrival="8.00" arrivalPos="85.60" duration="8.00" routeLength="-1.00" timeLoss="-0.00"/>
        <stop duration="0.00" arrival="8.00" arrivalPos="16.00" actType="last stage removed"/>
    </personinfo>
    <tripinfo id="driver_0" depart="0.00" departLane="-gneE362_0" departPos="50.50" departSpeed="0.00" departDelay="0.00" arrival="16.00" arrivalLane="-gneE300_0" arrivalPos="58.54" arrivalSpeed="8.65" duration="16.00" routeLength="107.83" waitingTime="0.00" waitingCount="0" stopTime="0.00" timeLoss="4.81" rerouteNo="18" devices="tripinfo_driver_0 taxi_driver_0" vType="driver" speedFactor="1.03" vaporized="traci">
        <taxi customers="0" occupiedDistance="0.00" occupiedTime="0.00"/>
    </tripinfo>
    <tripinfo id="driver_4" depart="9.00" departLane="gneE426_0" departPos="3.95" departSpeed="0.00" departDelay="0.00" arrival="27.00" arrivalLane="-gneE353_0" arrivalPos="29.62" arrivalSpeed="11.47" duration="18.00" routeLength="120.30" waitingTime="0.00" waitingCount="0" stopTime="0.00" timeLoss="3.97" rerouteNo="20" devices="tripinfo_driver_4 taxi_driver_4" vType="driver" speedFactor="0.94" vaporized="traci">
        <taxi customers="0" occupiedDistance="0.00" occupiedTime="0.00"/>
    </tripinfo>
    <tripinfo id="driver_5" depart="15.00" departLane="-gneE427_0" departPos="70.56" departSpeed="0.00" departDelay="0.00" arrival="28.00" arrivalLane="gneE354_0" arrivalPos="59.43" arrivalSpeed="9.54" duration="13.00" routeLength="83.50" waitingTime="0.00" waitingCount="0" stopTime="0.00" timeLoss="3.51" rerouteNo="15" devices="tripinfo_driver_5 taxi_driver_5" vType="driver" speedFactor="1.01" vaporized="traci">
        <taxi customers="0" occupiedDistance="0.00" occupiedTime="0.00"/>
    </tripinfo>
    <tripinfo id="driver_11" depart="24.00" departLane="-gneE444_0" departPos="69.48" departSpeed="0.00" departDelay="0.00" arrival="31.00" arrivalLane="gneE366_0" arrivalPos="9.26" arrivalSpeed="7.94" duration="7.00" routeLength="34.41" waitingTime="0.00" waitingCount="0" stopTime="0.00" timeLoss="3.56" rerouteNo="9" devices="tripinfo_driver_11 taxi_driver_11" vType="driver" speedFactor="1.02" vaporized="traci">
        <taxi customers="0" occupiedDistance="0.00" occupiedTime="0.00"/>
    </tripinfo>
    <tripinfo id="driver_10" depart="23.00" departLane="gneE415_0" departPos="14.38" departSpeed="0.00" departDelay="0.00" arrival="32.00" arrivalLane="gneE415_0" arrivalPos="80.39" arrivalSpeed="10.89" duration="9.00" routeLength="66.01" waitingTime="0.00" waitingCount="0" stopTime="0.00" timeLoss="3.43" rerouteNo="9" devices="tripinfo_driver_10 taxi_driver_10" vType="driver" speedFactor="0.96" vaporized="traci">
        <taxi customers="0" occupiedDistance="0.00" occupiedTime="0.00"/>
    </tripinfo>
    <tripinfo id="driver_8" depart="20.00" departLane="gneE410_0" departPos="11.07" departSpeed="0.00" departDelay="0.00" arrival="33.00" arrivalLane="gneE411_0" arrivalPos="12.91" arrivalSpeed="12.34" duration="13.00" routeLength="101.83" waitingTime="0.00" waitingCount="0" stopTime="0.00" timeLoss="5.17" rerouteNo="15" devices="tripinfo_driver_8 taxi_driver_8" vType="driver" speedFactor="1.06" vaporized="traci">
        <taxi customers="0" occupiedDistance="0.00" occupiedTime="0.00"/>
    </tripinfo>
    <tripinfo id="driver_7" depart="19.00" departLane="gneE440_0" departPos="13.62" departSpeed="0.00" departDelay="0.00" arrival="36.00" arrivalLane="-gneE395_0" arrivalPos="42.10" arrivalSpeed="12.88" duration="17.00" routeLength="123.11" waitingTime="0.00" waitingCount="0" stopTime="0.00" timeLoss="4.63" rerouteNo="19" devices="tripinfo_driver_7 taxi_driver_7" vType="driver" speedFactor="0.96" vaporized="traci">
        <taxi customers="0" occupiedDistance="0.00" occupiedTime="0.00"/>
    </tripinfo>
    <tripinfo id="driver_9" depart="22.00" departLane="-gneE290_0" departPos="82.56" departSpeed="0.00" departDelay="0.00" arrival="38.00" arrivalLane=":gneJ161_9_0" arrivalPos="6.84" arrivalSpeed="5.30" duration="16.00" routeLength="104.50" waitingTime="0.00" waitingCount="0" stopTime="0.00" timeLoss="3.73" rerouteNo="19" devices="tripinfo_driver_9 taxi_driver_9" vType="driver" speedFactor="0.95" vaporized="traci">
        <taxi customers="0" occupiedDistance="0.00" occupiedTime="0.00"/>
    </tripinfo>
    <tripinfo id="driver_14" depart="33.00" departLane="-gneE18_0" departPos="79.45" departSpeed="0.00" departDelay="0.00" arrival="38.00" arrivalLane=":gneJ18_1_0" arrivalPos="11.95" arrivalSpeed="7.29" duration="5.00" routeLength="18.11" waitingTime="0.00" waitingCount="0" stopTime="0.00" timeLoss="2.71" rerouteNo="6" devices="tripinfo_driver_14 taxi_driver_14" vType="driver" speedFactor="0.94" vaporized="traci">
        <taxi customers="0" occupiedDistance="0.00" occupiedTime="0.00"/>
    </tripinfo>
    <tripinfo id="driver_15" depart="36.00" departLane="-gneE7_0" departPos="15.46" departSpeed="0.00" departDelay="0.00" arrival="38.00" arrivalLane="-gneE7_0" arrivalPos="16.87" arrivalSpeed="1.41" duration="2.00" routeLength="1.41" waitingTime="0.00" waitingCount="0" stopTime="0.00" timeLoss="0.92" rerouteNo="2" devices="tripinfo_driver_15 taxi_driver_15" vType="driver" speedFactor="0.99" vaporized="traci">
        <taxi customers="0" occupiedDistance="0.00" occupiedTime="0.00"/>
    </tripinfo>
    <tripinfo id="driver_13" depart="30.00" departLane="-gneE378_0" departPos="49.65" departSpeed="0.00" departDelay="0.00" arrival="42.00" arrivalLane="-gneE460_0" arrivalPos="23.33" arrivalSpeed="9.55" duration="12.00" routeLength="68.31" waitingTime="0.00" waitingCount="0" stopTime="0.00" timeLoss="4.95" rerouteNo="14" devices="tripinfo_driver_13 taxi_driver_13" vType="driver" speedFactor="0.90" vaporized="traci">
        <taxi customers="0" occupiedDistance="0.00" occupiedTime="0.00"/>
    </tripinfo>
    <personinfo id="customer_6" depart="46.00" type="DEFAULT_PEDTYPE">
        <ride waitingTime="2.00" vehicle="NULL" depart="-1" arrival="48.00" arrivalPos="85.60" duration="48.00" routeLength="-1.00" timeLoss="-0.00"/>
        <stop duration="0.00" arrival="48.00" arrivalPos="51.00" actType="last stage removed"/>
    </personinfo>
    <tripinfo id="driver_20" depart="44.00" departLane="-gneE427_0" departPos="31.26" departSpeed="0.00" departDelay="0.00" arrival="49.00" arrivalLane="-gneE427_0" arrivalPos="53.59" arrivalSpeed="8.70" duration="5.00" routeLength="22.33" waitingTime="0.00" waitingCount="0" stopTime="0.00" timeLoss="2.72" rerouteNo="5" devices="tripinfo_driver_20 taxi_driver_20" vType="driver" speedFactor="1.09" vaporized="traci">
        <taxi customers="0" occupiedDistance="0.00" occupiedTime="0.00"/>
    </tripinfo>
    <tripinfo id="driver_17" depart="38.00" departLane="-gneE496_0" departPos="30.12" departSpeed="0.00" departDelay="0.00" arrival="51.00" arrivalLane="gneE553_0" arrivalPos="23.80" arrivalSpeed="11.26" duration="13.00" routeLength="93.47" waitingTime="0.00" waitingCount="0" stopTime="0.00" timeLoss="4.25" rerouteNo="16" devices="tripinfo_driver_17 taxi_driver_17" vType="driver" speedFactor="0.98" vaporized="traci">
        <taxi customers="0" occupiedDistance="0.00" occupiedTime="0.00"/>
    </tripinfo>
    <personinfo id="customer_9" depart="54.00" type="DEFAULT_PEDTYPE">
        <ride waitingTime="3.00" vehicle="NULL" depart="-1" arrival="57.00" arrivalPos="85.60" duration="57.00" routeLength="-1.00" timeLoss="-0.00"/>
        <stop duration="0.00" arrival="57.00" arrivalPos="7.00" actType="last stage removed"/>
    </personinfo>
    <personinfo id="customer_10" depart="60.00" type="DEFAULT_PEDTYPE">
        <ride waitingTime="3.00" vehicle="NULL" depart="-1" arrival="63.00" arrivalPos="85.60" duration="63.00" routeLength="-1.00" timeLoss="-0.00"/>
        <stop duration="0.00" arrival="63.00" arrivalPos="75.00" actType="last stage removed"/>
    </personinfo>
    <personinfo id="customer_12" depart="63.00" type="DEFAULT_PEDTYPE">
        <ride waitingTime="2.00" vehicle="NULL" depart="-1" arrival="65.00" arrivalPos="85.60" duration="65.00" routeLength="-1.00" timeLoss="-0.00"/>
        <stop duration="0.00" arrival="65.00" arrivalPos="26.00" actType="last stage removed"/>
    </personinfo>
    <tripinfo id="driver_24" depart="61.00" departLane="gneE414_0" departPos="60.97" departSpeed="0.00" departDelay="0.00" arrival="69.00" arrivalLane="gneE383_0" arrivalPos="4.87" arrivalSpeed="8.23" duration="8.00" routeLength="43.69" waitingTime="0.00" waitingCount="0" stopTime="0.00" timeLoss="3.18" rerouteNo="11" devices="tripinfo_driver_24 taxi_driver_24" vType="driver" speedFactor="1.05" vaporized="traci">
        <taxi customers="0" occupiedDistance="0.00" occupiedTime="0.00"/>
    </tripinfo>
    <tripinfo id="16" depart="16.00" departLane="gneE135_0" departPos="5.10" departSpeed="0.00" departDelay="0.00" arrival="73.00" arrivalLane="gneE71_0" arrivalPos="85.60" arrivalSpeed="14.72" duration="57.00" routeLength="579.87" waitingTime="0.00" waitingCount="0" stopTime="0.00" timeLoss="13.17" rerouteNo="1" devices="tripinfo_16 routing_16" vType="DEFAULT_VEHTYPE" speedFactor="0.91" vaporized=""/>
    <tripinfo id="driver_25" depart="62.00" departLane="-gneE351_0" departPos="3.65" departSpeed="0.00" departDelay="0.00" arrival="73.00" arrivalLane="-gneE351_0" arrivalPos="83.03" arrivalSpeed="6.89" duration="11.00" routeLength="79.39" waitingTime="0.00" waitingCount="0" stopTime="0.00" timeLoss="5.17" rerouteNo="11" devices="tripinfo_driver_25 taxi_driver_25" vType="driver" speedFactor="0.97" vaporized="traci">
        <taxi customers="0" occupiedDistance="0.00" occupiedTime="0.00"/>
    </tripinfo>
    <tripinfo id="10" depart="10.00" departLane="gneE412_0" departPos="5.10" departSpeed="0.00" departDelay="0.00" arrival="77.00" arrivalLane="gneE301_0" arrivalPos="85.60" arrivalSpeed="17.09" duration="67.00" routeLength="669.76" waitingTime="0.00" waitingCount="0" stopTime="0.00" timeLoss="19.76" rerouteNo="1" devices="tripinfo_10 routing_10" vType="DEFAULT_VEHTYPE" speedFactor="1.09" vaporized=""/>
    <personinfo id="customer_15" depart="77.00" type="DEFAULT_PEDTYPE">
        <ride waitingTime="2.00" vehicle="NULL" depart="-1" arrival="79.00" arrivalPos="85.60" duration="79.00" routeLength="-1.00" timeLoss="-0.00"/>
        <stop duration="0.00" arrival="79.00" arrivalPos="81.00" actType="last stage removed"/>
    </personinfo>
    <tripinfo id="25" depart="25.00" departLane="-gneE479_0" departPos="5.10" departSpeed="0.00" departDelay="0.00" arrival="86.00" arrivalLane="-gneE313_0" arrivalPos="85.60" arrivalSpeed="8.70" duration="61.00" routeLength="580.29" waitingTime="0.00" waitingCount="0" stopTime="0.00" timeLoss="7.89" rerouteNo="1" devices="tripinfo_25 routing_25" vType="DEFAULT_VEHTYPE" speedFactor="0.97" vaporized=""/>
    <tripinfo id="28" depart="28.00" departLane="-gneE274_0" departPos="5.10" departSpeed="0.00" departDelay="0.00" arrival="86.00" arrivalLane="gneE333_0" arrivalPos="85.60" arrivalSpeed="10.56" duration="58.00" routeLength="569.55" waitingTime="0.00" waitingCount="0" stopTime="0.00" timeLoss="11.73" rerouteNo="1" devices="tripinfo_28 routing_28" vType="DEFAULT_VEHTYPE" speedFactor="0.95" vaporized=""/>
    <personinfo id="customer_19" depart="85.00" type="DEFAULT_PEDTYPE">
        <ride waitingTime="2.00" vehicle="NULL" depart="-1" arrival="87.00" arrivalPos="85.60" duration="87.00" routeLength="-1.00" timeLoss="-0.00"/>
        <stop duration="0.00" arrival="87.00" arrivalPos="14.00" actType="last stage removed"/>
    </personinfo>
    <tripinfo id="1" depart="1.00" departLane="-gneE381_0" departPos="5.10" departSpeed="0.00" departDelay="0.00" arrival="88.00" arrivalLane="-gneE327_0" arrivalPos="85.60" arrivalSpeed="11.60" duration="87.00" routeLength="880.08" waitingTime="0.00" waitingCount="0" stopTime="0.00" timeLoss="15.30" rerouteNo="1" devices="tripinfo_1 routing_1" vType="DEFAULT_VEHTYPE" speedFactor="0.94" vaporized=""/>
    <tripinfo id="driver_34" depart="86.00" departLane="gneE103_0" departPos="27.69" departSpeed="0.00" departDelay="0.00" arrival="89.00" arrivalLane="gneE103_0" arrivalPos="34.29" arrivalSpeed="4.31" duration="3.00" routeLength="6.61" waitingTime="0.00" waitingCount="0" stopTime="0.00" timeLoss="1.65" rerouteNo="3" devices="tripinfo_driver_34 taxi_driver_34" vType="driver" speedFactor="0.94" vaporized="traci">
        <taxi customers="0" occupiedDistance="0.00" occupiedTime="0.00"/>
    </tripinfo>
    <tripinfo id="driver_31" depart="83.00" departLane="-gneE230_0" departPos="35.26" departSpeed="0.00" departDelay="0.00" arrival="91.00" arrivalLane="-gneE230_0" arrivalPos="85.26" arrivalSpeed="7.37" duration="8.00" routeLength="50.00" waitingTime="0.00" waitingCount="0" stopTime="0.00" timeLoss="4.26" rerouteNo="8" devices="tripinfo_driver_31 taxi_driver_31" vType="driver" speedFactor="1.01" vaporized="traci">
        <taxi customers="0" occupiedDistance="0.00" occupiedTime="0.00"/>
    </tripinfo>
    <personinfo id="customer_21" depart="90.00" type="DEFAULT_PEDTYPE">
        <ride waitingTime="2.00" vehicle="NULL" depart="-1" arrival="92.00" arrivalPos="85.60" duration="92.00" routeLength="-1.00" timeLoss="-0.00"/>
        <stop duration="0.00" arrival="92.00" arrivalPos="75.00" actType="last stage removed"/>
    </personinfo>
    <tripinfo id="27" depart="27.00" departLane="gneE250_0" departPos="5.10" departSpeed="0.00" departDelay="0.00" arrival="93.00" arrivalLane="gneE21_0" arrivalPos="85.60" arrivalSpeed="16.81" duration="66.00" routeLength="780.08" waitingTime="0.00" waitingCount="0" stopTime="0.00" timeLoss="12.75" rerouteNo="1" devices="tripinfo_27 routing_27" vType="DEFAULT_VEHTYPE" speedFactor="0.90" vaporized=""/>
    <tripinfo id="67" depart="67.00" departLane="-gneE186_0" departPos="5.10" departSpeed="0.00" departDelay="0.00" arrival="95.00" arrivalLane="-gneE85_0" arrivalPos="85.60" arrivalSpeed="17.98" duration="28.00" routeLength="275.13" waitingTime="0.00" waitingCount="0" stopTime="0.00" timeLoss="12.48" rerouteNo="1" devices="tripinfo_67 routing_67" vType="DEFAULT_VEHTYPE" speedFactor="1.11" vaporized=""/>
    <tripinfo id="38" depart="38.00" departLane="gneE524_0" departPos="5.10" departSpeed="0.00" departDelay="0.00" arrival="96.00" arrivalLane="-gneE570_0" arrivalPos="85.60" arrivalSpeed="18.32" duration="58.00" routeLength="564.39" waitingTime="0.00" waitingCount="0" stopTime="0.00" timeLoss="16.49" rerouteNo="1" devices="tripinfo_38 routing_38" vType="DEFAULT_VEHTYPE" speedFactor="1.00" vaporized=""/>
    <tripinfo id="0" depart="0.00" departLane="gneE241_0" departPos="5.10" departSpeed="0.00" departDelay="0.00" arrival="97.00" arrivalLane="-gneE123_0" arrivalPos="85.60" arrivalSpeed="18.15" duration="97.00" routeLength="1058.81" waitingTime="0.00" waitingCount="0" stopTime="0.00" timeLoss="28.19" rerouteNo="1" devices="tripinfo_0 routing_0" vType="DEFAULT_VEHTYPE" speedFactor="1.06" vaporized=""/>
    <tripinfo id="driver_35" depart="87.00" departLane="-gneE348_0" departPos="31.37" departSpeed="0.00" departDelay="0.00" arrival="97.00" arrivalLane=":gneJ211_5_0" arrivalPos="5.98" arrivalSpeed="6.42" duration="10.00" routeLength="60.21" waitingTime="0.00" waitingCount="0" stopTime="0.00" timeLoss="4.45" rerouteNo="11" devices="tripinfo_driver_35 taxi_driver_35" vType="driver" speedFactor="1.09" vaporized="traci">
        <taxi customers="0" occupiedDistance="0.00" occupiedTime="0.00"/>
    </tripinfo>
    <tripinfo id="driver_38" depart="98.00" departLane="gneE391_0" departPos="20.41" departSpeed="0.00" departDelay="0.00" arrival="100.00" arrivalLane="gneE391_0" arrivalPos="22.20" arrivalSpeed="1.79" duration="2.00" routeLength="1.79" waitingTime="0.00" waitingCount="0" stopTime="0.00" timeLoss="0.90" rerouteNo="2" devices="tripinfo_driver_38 taxi_driver_38" vType="driver" speedFactor="0.99" vaporized="traci">
        <taxi customers="0" occupiedDistance="0.00" occupiedTime="0.00"/>
    </tripinfo>
    <tripinfo id="34" depart="34.00" departLane="-gneE422_0" departPos="5.10" departSpeed="0.00" departDelay="0.00" arrival="101.00" arrivalLane="-gneE373_0" arrivalPos="85.60" arrivalSpeed="10.31" duration="67.00" routeLength="664.39" waitingTime="0.00" waitingCount="0" stopTime="0.00" timeLoss="13.84" rerouteNo="1" devices="tripinfo_34 routing_34" vType="DEFAULT_VEHTYPE" speedFactor="1.02" vaporized=""/>
    <tripinfo id="39" depart="39.00" departLane="-gneE370_0" departPos="5.10" departSpeed="0.00" departDelay="0.00" arrival="101.00" arrivalLane="-gneE351_0" arrivalPos="85.60" arrivalSpeed="17.38" duration="62.00" routeLength="569.34" waitingTime="0.00" waitingCount="0" stopTime="0.00" timeLoss="15.41" rerouteNo="1" devices="tripinfo_39 routing_39" vType="DEFAULT_VEHTYPE" speedFactor="1.07" vaporized=""/>
    <tripinfo id="43" depart="43.00" departLane="gneE97_0" departPos="5.10" departSpeed="0.00" departDelay="0.00" arrival="102.00" arrivalLane="gneE107_0" arrivalPos="85.60" arrivalSpeed="10.06" duration="59.00" routeLength="559.02" waitingTime="0.00" waitingCount="0" stopTime="0.00" timeLoss="16.82" rerouteNo="1" devices="tripinfo_43 routing_43" vType="DEFAULT_VEHTYPE" speedFactor="0.92" vaporized=""/>
    <personinfo id="customer_22" depart="99.00" type="DEFAULT_PEDTYPE">
        <ride waitingTime="3.00" vehicle="NULL" depart="-1" arrival="102.00" arrivalPos="85.60" duration="102.00" routeLength="-1.00" timeLoss="-0.00"/>
        <stop duration="0.00" arrival="102.00" arrivalPos="37.00" actType="last stage removed"/>
    </personinfo>
    <tripinfo id="31" depart="31.00" departLane="gneE157_0" departPos="5.10" departSpeed="0.00" departDelay="0.00" arrival="106.00" arrivalLane="gneE288_0" arrivalPos="85.60" arrivalSpeed="15.66" duration="75.00" routeLength="775.13" waitingTime="0.00" waitingCount="0" stopTime="0.00" timeLoss="20.75" rerouteNo="1" devices="tripinfo_31 routing_31" vType="DEFAULT_VEHTYPE" speedFactor="1.00" vaporized=""/>
    <tripinfo id="driver_41" depart="104.00" departLane="-gneE36_0" departPos="67.87" departSpeed="0.00" departDelay="0.00" arrival="106.00" arrivalLane="-gneE36_0" arrivalPos="69.30" arrivalSpeed="1.43" duration="2.00" routeLength="1.43" waitingTime="0.00" waitingCount="0" stopTime="0.00" timeLoss="0.93" rerouteNo="2" devices="tripinfo_driver_41 taxi_driver_41" vType="driver" speedFactor="0.96" vaporized="traci">
        <taxi customers="0" occupiedDistance="0.00" occupiedTime="0.00"/>
    </tripinfo>
    <tripinfo id="71" depart="71.00" departLane="-gneE370_0" departPos="5.10" departSpeed="0.00" departDelay="0.00" arrival="107.00" arrivalLane="gneE481_0" arrivalPos="85.60" arrivalSpeed="8.39" duration="36.00" routeLength="280.29" waitingTime="0.00" waitingCount="0" stopTime="0.00" timeLoss="5.62" rerouteNo="1" devices="tripinfo_71 routing_71" vType="DEFAULT_VEHTYPE" speedFactor="0.85" vaporized=""/>
    <tripinfo id="15" depart="15.00" departLane="gneE413_0" departPos="5.10" departSpeed="0.00" departDelay="0.00" arrival="108.00" arrivalLane="gneE334_0" arrivalPos="85.60" arrivalSpeed="8.92" duration="93.00" routeLength="874.71" waitingTime="0.00" waitingCount="0" stopTime="0.00" timeLoss="13.69" rerouteNo="1" devices="tripinfo_15 routing_15" vType="DEFAULT_VEHTYPE" speedFactor="0.82" vaporized=""/>
    <tripinfo id="18" depart="18.00" departLane="gneE437_0" departPos="5.10" departSpeed="0.00" departDelay="0.00" arrival="111.00" arrivalLane="gneE22_0" arrivalPos="85.60" arrivalSpeed="15.28" duration="93.00" routeLength="1069.55" waitingTime="0.00" waitingCount="0" stopTime="0.00" timeLoss="29.29" rerouteNo="1" devices="tripinfo_18 routing_18" vType="DEFAULT_VEHTYPE" speedFactor="1.09" vaporized=""/>
    <personinfo id="customer_23" depart="101.00" type="DEFAULT_PEDTYPE">
        <ride waitingTime="12.00" vehicle="NULL" depart="-1" arrival="113.00" arrivalPos="85.60" duration="113.00" routeLength="-1.00" timeLoss="-0.00"/>
        <stop duration="0.00" arrival="113.00" arrivalPos="63.00" actType="last stage removed"/>
    </personinfo>
    <tripinfo id="49" depart="49.00" departLane="gneE69_0" departPos="5.10" departSpeed="0.00" departDelay="0.00" arrival="115.00" arrivalLane="gneE47_0" arrivalPos="85.60" arrivalSpeed="16.86" duration="66.00" routeLength="669.34" waitingTime="0.00" waitingCount="0" stopTime="0.00" timeLoss="19.24" rerouteNo="1" devices="tripinfo_49 routing_49" vType="DEFAULT_VEHTYPE" speedFactor="1.06" vaporized=""/>
    <tripinfo id="55" depart="55.00" departLane="gneE485_0" departPos="5.10" departSpeed="0.00" departDelay="0.00" arrival="116.00" arrivalLane="-gneE369_0" arrivalPos="85.60" arrivalSpeed="8.64" duration="61.00" routeLength="569.55" waitingTime="0.00" waitingCount="0" stopTime="0.00" timeLoss="10.60" rerouteNo="1" devices="tripinfo_55 routing_55" vType="DEFAULT_VEHTYPE" speedFactor="0.91" vaporized=""/>
    <tripinfo id="driver_29" depart="78.00" departLane="-gneE486_0" departPos="77.33" departSpeed="0.00" departDelay="0.00" arrival="116.00" arrivalLane="-gneE399_0" arrivalPos="20.63" arrivalSpeed="10.37" duration="38.00" routeLength="337.51" waitingTime="0.00" waitingCount="0" stopTime="0.00" timeLoss="11.71" rerouteNo="47" devices="tripinfo_driver_29 taxi_driver_29" vType="driver" speedFactor="1.05" vaporized="traci">
        <taxi customers="0" occupiedDistance="0.00" occupiedTime="0.00"/>
    </tripinfo>
    <tripinfo id="13" depart="13.00" departLane="-gneE193_0" departPos="5.10" departSpeed="0.00" departDelay="0.00" arrival="119.00" arrivalLane="-gneE198_0" arrivalPos="85.60" arrivalSpeed="17.39" duration="106.00" routeLength="959.02" waitingTime="6.00" waitingCount="1" stopTime="0.00" timeLoss="39.63" rerouteNo="1" devices="tripinfo_13 routing_13" vType="DEFAULT_VEHTYPE" speedFactor="1.06" vaporized=""/>
    <tripinfo id="driver_47" depart="113.00" departLane="-gneE415_0" departPos="4.19" departSpeed="0.00" departDelay="0.00" arrival="120.00" arrivalLane="-gneE415_0" arrivalPos="42.45" arrivalSpeed="8.08" duration="7.00" routeLength="38.26" waitingTime="0.00" waitingCount="0" stopTime="0.00" timeLoss="1.89" rerouteNo="7" devices="tripinfo_driver_47 taxi_driver_47" vType="driver" speedFactor="0.93" vaporized="traci">
        <taxi customers="0" occupiedDistance="0.00" occupiedTime="0.00"/>
    </tripinfo>
    <tripinfo id="48" depart="48.00" departLane="gneE95_0" departPos="5.10" departSpeed="0.00" departDelay="0.00" arrival="122.00" arrivalLane="gneE128_0" arrivalPos="85.60" arrivalSpeed="13.14" duration="74.00" routeLength="674.92" waitingTime="0.00" waitingCount="0" stopTime="0.00" timeLoss="14.04" rerouteNo="1" devices="tripinfo_48 routing_48" vType="DEFAULT_VEHTYPE" speedFactor="0.79" vaporized=""/>
    <tripinfo id="32" depart="32.00" departLane="gneE450_0" departPos="5.10" departSpeed="0.00" departDelay="0.00" arrival="123.00" arrivalLane="gneE382_0" arrivalPos="85.60" arrivalSpeed="15.36" duration="91.00" routeLength="858.81" waitingTime="0.00" waitingCount="0" stopTime="0.00" timeLoss="23.09" rerouteNo="1" devices="tripinfo_32 routing_32" vType="DEFAULT_VEHTYPE" speedFactor="0.92" vaporized=""/>
    <tripinfo id="36" depart="36.00" departLane="gneE485_0" departPos="5.10" departSpeed="0.00" departDelay="0.00" arrival="123.00" arrivalLane="-gneE421_0" arrivalPos="85.60" arrivalSpeed="16.40" duration="87.00" routeLength="969.76" waitingTime="0.00" waitingCount="0" stopTime="0.00" timeLoss="24.10" rerouteNo="1" devices="tripinfo_36 routing_36" vType="DEFAULT_VEHTYPE" speedFactor="1.11" vaporized=""/>
    <tripinfo id="driver_44" depart="106.00" departLane="gneE415_0" departPos="46.71" departSpeed="0.00" departDelay="0.00" arrival="125.00" arrivalLane=":gneJ234_11_0" arrivalPos="11.73" arrivalSpeed="7.39" duration="19.00" routeLength="150.41" waitingTime="0.00" waitingCount="0" stopTime="0.00" timeLoss="5.10" rerouteNo="23" devices="tripinfo_driver_44 taxi_driver_44" vType="driver" speedFactor="1.02" vaporized="traci">
        <taxi customers="0" occupiedDistance="0.00" occupiedTime="0.00"/>
    </tripinfo>
    <personinfo id="customer_32" depart="126.00" type="DEFAULT_PEDTYPE">
        <ride waitingTime="2.00" vehicle="NULL" depart="-1" arrival="128.00" arrivalPos="85.60" duration="128.00" routeLength="-1.00" timeLoss="-0.00"/>
        <stop duration="0.00" arrival="128.00" arrivalPos="48.00" actType="last stage removed"/>
    </personinfo>
    <personinfo id="customer_33" depart="127.00" type="DEFAULT_PEDTYPE">
        <ride waitingTime="3.00" vehicle="NULL" depart="-1" arrival="130.00" arrivalPos="85.60" duration="130.00" routeLength="-1.00" timeLoss="-0.00"/>
        <stop duration="0.00" arrival="130.00" arrivalPos="31.00" actType="last stage removed"/>
    </personinfo>
    <tripinfo id="54" depart="54.00" departLane="-gneE565_0" departPos="5.10" departSpeed="0.00" departDelay="0.00" arrival="135.00" arrivalLane="gneE565_0" arrivalPos="85.60" arrivalSpeed="10.52" duration="81.00" routeLength="748.28" waitingTime="0.00" waitingCount="0" stopTime="0.00" timeLoss="21.52" rerouteNo="1" devices="tripinfo_54 routing_54" vType="DEFAULT_VEHTYPE" speedFactor="0.98" vaporized=""/>
    <personinfo id="customer_31" depart="124.00" type="DEFAULT_PEDTYPE">
        <ride waitingTime="11.00" vehicle="NULL" depart="-1" arrival="135.00" arrivalPos="85.60" duration="135.00" routeLength="-1.00" timeLoss="-0.00"/>
        <stop duration="0.00" arrival="135.00" arrivalPos="7.00" actType="last stage removed"/>
    </personinfo>
    <tripinfo id="driver_43" depart="105.00" departLane="-gneE179_0" departPos="1.00" departSpeed="0.00" departDelay="0.00" arrival="136.00" arrivalLane="-gneE177_0" arrivalPos="73.61" arrivalSpeed="11.17" duration="31.00" routeLength="272.61" waitingTime="0.00" waitingCount="0" stopTime="0.00" timeLoss="6.35" rerouteNo="35" devices="tripinfo_driver_43 taxi_driver_43" vType="driver" speedFactor="0.99" vaporized="traci">
        <taxi customers="0" occupiedDistance="0.00" occupiedTime="0.00"/>
    </tripinfo>
    <tripinfo id="52" depart="52.00" departLane="-gneE372_0" departPos="5.10" departSpeed="0.00" departDelay="0.00" arrival="137.00" arrivalLane="gneE242_0" arrivalPos="85.60" arrivalSpeed="13.66" duration="85.00" routeLength="968.92" waitingTime="0.00" waitingCount="0" stopTime="0.00" timeLoss="27.42" rerouteNo="1" devices="tripinfo_52 routing_52" vType="DEFAULT_VEHTYPE" speedFactor="1.14" vaporized=""/>
    <tripinfo id="driver_39" depart="101.00" departLane="gneE337_0" departPos="2.96" departSpeed="0.00" departDelay="0.00" arrival="137.00" arrivalLane="-gneE357_0" arrivalPos="79.38" arrivalSpeed="9.19" duration="36.00" routeLength="376.00" waitingTime="0.00" waitingCount="0" stopTime="0.00" timeLoss="10.45" rerouteNo="43" devices="tripinfo_driver_39 taxi_driver_39" vType="driver" speedFactor="1.07" vaporized="traci">
        <taxi customers="0" occupiedDistance="0.00" occupiedTime="0.00"/>
    </tripinfo>
    <tripinfo id="driver_51" depart="132.00" departLane="-gneE18_0" departPos="68.32" departSpeed="0.00" departDelay="0.00" arrival="137.00" arrivalLane=":gneJ18_1_0" arrivalPos="4.79" arrivalSpeed="8.50" duration="5.00" routeLength="22.06" waitingTime="0.00" waitingCount="0" stopTime="0.00" timeLoss="2.62" rerouteNo="6" devices="tripinfo_driver_51 taxi_driver_51" vType="driver" speedFactor="0.99" vaporized="traci">
        <taxi customers="0" occupiedDistance="0.00" occupiedTime="0.00"/>
    </tripinfo>
    <personinfo id="customer_27" depart="115.00" type="DEFAULT_PEDTYPE">
        <ride waitingTime="22.00" vehicle="NULL" depart="-1" arrival="137.00" arrivalPos="85.60" duration="137.00" routeLength="-1.00" timeLoss="-0.00"/>
        <stop duration="0.00" arrival="137.00" arrivalPos="12.00" actType="last stage removed"/>
    </personinfo>
    <personinfo id="customer_28" depart="115.00" type="DEFAULT_PEDTYPE">
        <ride waitingTime="22.00" vehicle="NULL" depart="-1" arrival="137.00" arrivalPos="85.60" duration="137.00" routeLength="-1.00" timeLoss="-0.00"/>
        <stop duration="0.00" arrival="137.00" arrivalPos="48.00" actType="last stage removed"/>
    </personinfo>