<?xml version="1.0" encoding="UTF-8"?>

<!-- generated on 2022-08-05 14:54:03 by Eclipse SUMO GUI Version 1.14.1
<configuration xmlns:xsi="http://www.w3.org/2001/XMLSchema-instance" xsi:noNamespaceSchemaLocation="http://sumo.dlr.de/xsd/sumoConfiguration.xsd">

    <input>
        <net-file value="net_config/schaffhausen_simplified.net.xml"/>
        <additional-files value="net_config/add.add.xml"/>
    </input>

    <output>
        <tripinfo-output value="net_config/tripinfo.xml"/>
    </output>

    <time>
        <step-length value="1"/>
    </time>

    <processing>
        <time-to-teleport value="0"/>
    </processing>

    <report>
        <log value="/Users/davidemolinelli/Documents/phd/repositories/ride-sharing-simulator/logfile.txt"/>
    </report>

    <traci_server>
        <remote-port value="56100"/>
    </traci_server>

    <gui_only>
        <gui-settings-file value="net_config/gui-settings.cfg"/>
    </gui_only>

</configuration>
-->

<tripinfos xmlns:xsi="http://www.w3.org/2001/XMLSchema-instance" xsi:noNamespaceSchemaLocation="http://sumo.dlr.de/xsd/tripinfo_file.xsd">
    <tripinfo id="driver_17" depart="3.00" departLane="-4698020#2_0" departPos="5.10" departSpeed="0.00" departDelay="3.00" arrival="4.00" arrivalLane="-4698020#2_0" arrivalPos="5.10" arrivalSpeed="0.00" duration="1.00" routeLength="0.00" waitingTime="0.00" waitingCount="0" stopTime="0.00" timeLoss="0.00" rerouteNo="0" devices="tripinfo_driver_17" vType="DEFAULT_VEHTYPE" speedFactor="0.93" vaporized="traci"/>
    <personinfo id="customer_3" depart="0.00" type="DEFAULT_PEDTYPE">
        <stop duration="20.00" arrival="20.00" arrivalPos="54.03" actType="waiting"/>
    </personinfo>
    <personinfo id="customer_6" depart="0.00" type="DEFAULT_PEDTYPE">
        <stop duration="20.00" arrival="20.00" arrivalPos="0.00" actType="waiting"/>
    </personinfo>
    <tripinfo id="driver_18" depart="0.00" departLane="24893177#1_0" departPos="5.10" departSpeed="0.00" departDelay="0.00" arrival="33.00" arrivalLane=":270474151_7_0" arrivalPos="5.54" arrivalSpeed="7.02" duration="33.00" routeLength="409.86" waitingTime="0.00" waitingCount="0" stopTime="0.00" timeLoss="6.24" rerouteNo="0" devices="tripinfo_driver_18" vType="DEFAULT_VEHTYPE" speedFactor="1.18" vaporized="traci"/>
    <tripinfo id="driver_9" depart="0.00" departLane="884095852_0" departPos="5.10" departSpeed="0.00" departDelay="0.00" arrival="36.00" arrivalLane="884095852_0" arrivalPos="605.15" arrivalSpeed="19.73" duration="36.00" routeLength="600.05" waitingTime="0.00" waitingCount="0" stopTime="0.00" timeLoss="6.31" rerouteNo="1" devices="tripinfo_driver_9" vType="DEFAULT_VEHTYPE" speedFactor="0.94" vaporized="traci"/>
    <tripinfo id="driver_26" depart="0.00" departLane="-226219790#5_0" departPos="5.10" departSpeed="0.00" departDelay="0.00" arrival="37.00" arrivalLane=":29039375_4_0" arrivalPos="12.08" arrivalSpeed="23.10" duration="37.00" routeLength="711.75" waitingTime="0.00" waitingCount="0" stopTime="0.00" timeLoss="6.66" rerouteNo="0" devices="tripinfo_driver_26" vType="DEFAULT_VEHTYPE" speedFactor="1.09" vaporized="traci"/>
    <tripinfo id="driver_4" depart="0.00" departLane="-4586772_0" departPos="5.10" departSpeed="0.00" departDelay="0.00" arrival="44.00" arrivalLane=":29011527_0_0" arrivalPos="11.32" arrivalSpeed="0.00" duration="44.00" routeLength="249.42" waitingTime="13.00" waitingCount="2" stopTime="0.00" timeLoss="22.65" rerouteNo="0" devices="tripinfo_driver_4" vType="DEFAULT_VEHTYPE" speedFactor="0.94" vaporized="traci"/>
    <tripinfo id="driver_23" depart="0.00" departLane="-26533726#2_0" departPos="5.10" departSpeed="0.00" departDelay="0.00" arrival="174.00" arrivalLane=":285609494_3_0" arrivalPos="3.58" arrivalSpeed="12.10" duration="174.00" routeLength="1868.17" waitingTime="0.00" waitingCount="0" stopTime="0.00" timeLoss="19.14" rerouteNo="0" devices="tripinfo_driver_23" vType="DEFAULT_VEHTYPE" speedFactor="0.90" vaporized="traci"/>
    <personinfo id="customer_23" depart="160.00" type="DEFAULT_PEDTYPE">
        <stop duration="20.00" arrival="180.00" arrivalPos="5.37" actType="waiting"/>
    </personinfo>
    <personinfo id="customer_9" depart="0.00" type="DEFAULT_PEDTYPE">
        <stop duration="150.00" arrival="150.00" arrivalPos="0.00" actType="waiting"/>
        <ride waitingTime="3.00" vehicle="driver_16" depart="153.00" arrival="214.00" arrivalPos="26.43" duration="61.00" routeLength="652.56" timeLoss="17.24"/>
        <stop duration="2.00" arrival="216.00" arrivalPos="26.43" actType="waiting"/>
    </personinfo>
    <personinfo id="customer_13" depart="0.00" type="DEFAULT_PEDTYPE">
        <stop duration="110.00" arrival="110.00" arrivalPos="23.25" actType="waiting"/>
        <ride waitingTime="2.00" vehicle="driver_24" depart="112.00" arrival="243.00" arrivalPos="136.12" duration="131.00" routeLength="1338.07" timeLoss="17.40"/>
        <stop duration="2.00" arrival="245.00" arrivalPos="136.14" actType="waiting"/>
    </personinfo>
    <personinfo id="customer_14" depart="0.00" type="DEFAULT_PEDTYPE">
        <stop duration="104.00" arrival="104.00" arrivalPos="0.00" actType="waiting"/>
        <ride waitingTime="4.00" vehicle="driver_22" depart="108.00" arrival="257.00" arrivalPos="318.37" duration="149.00" routeLength="2211.49" timeLoss="22.81"/>
        <stop duration="2.00" arrival="259.00" arrivalPos="318.37" actType="waiting"/>
    </personinfo>
    <personinfo id="customer_11" depart="0.00" type="DEFAULT_PEDTYPE">
        <stop duration="160.00" arrival="160.00" arrivalPos="108.53" actType="waiting"/>
        <ride waitingTime="3.00" vehicle="driver_19" depart="163.00" arrival="284.00" arrivalPos="61.08" duration="121.00" routeLength="1502.88" timeLoss="23.97"/>
        <stop duration="2.00" arrival="286.00" arrivalPos="61.12" actType="waiting"/>
    </personinfo>
    <personinfo id="customer_5" depart="0.00" type="DEFAULT_PEDTYPE">
        <stop duration="153.00" arrival="153.00" arrivalPos="124.94" actType="waiting"/>
        <ride waitingTime="2.00" vehicle="driver_12" depart="155.00" arrival="287.00" arrivalPos="45.53" duration="132.00" routeLength="1340.59" timeLoss="17.83"/>
        <stop duration="2.00" arrival="289.00" arrivalPos="45.56" actType="waiting"/>
    </personinfo>
    <personinfo id="customer_17" depart="70.00" type="DEFAULT_PEDTYPE">
        <stop duration="137.00" arrival="207.00" arrivalPos="0.00" actType="waiting"/>
        <ride waitingTime="4.00" vehicle="driver_20" depart="211.00" arrival="294.00" arrivalPos="47.83" duration="83.00" routeLength="814.43" timeLoss="15.62"/>
        <stop duration="2.00" arrival="296.00" arrivalPos="47.83" actType="waiting"/>
    </personinfo>
    <personinfo id="customer_27" depart="290.00" type="DEFAULT_PEDTYPE">
        <stop duration="10.00" arrival="300.00" arrivalPos="0.00" actType="waiting"/>
    </personinfo>
    <tripinfo id="driver_40" depart="250.00" departLane="179146692_0" departPos="5.10" departSpeed="0.00" departDelay="0.00" arrival="311.00" arrivalLane="51695768_1" arrivalPos="21.87" arrivalSpeed="25.17" duration="61.00" routeLength="1328.13" waitingTime="0.00" waitingCount="0" stopTime="0.00" timeLoss="7.28" rerouteNo="1" devices="tripinfo_driver_40" vType="DEFAULT_VEHTYPE" speedFactor="0.91" vaporized="traci"/>
    <personinfo id="customer_16" depart="60.00" type="DEFAULT_PEDTYPE">
        <stop duration="180.00" arrival="240.00" arrivalPos="907.28" actType="waiting"/>
        <ride waitingTime="2.00" vehicle="driver_25" depart="242.00" arrival="311.00" arrivalPos="81.33" duration="69.00" routeLength="1047.26" timeLoss="18.17"/>
        <stop duration="2.00" arrival="313.00" arrivalPos="81.34" actType="waiting"/>
    </personinfo>
    <personinfo id="customer_12" depart="0.00" type="DEFAULT_PEDTYPE">
        <stop duration="126.00" arrival="126.00" arrivalPos="147.24" actType="waiting"/>
        <ride waitingTime="2.00" vehicle="driver_27" depart="128.00" arrival="311.00" arrivalPos="124.94" duration="183.00" routeLength="3393.15" timeLoss="20.71"/>
        <stop duration="2.00" arrival="313.00" arrivalPos="124.96" actType="waiting"/>
    </personinfo>
    <tripinfo id="driver_6" depart="0.00" departLane="195972828#6_0" departPos="5.10" departSpeed="0.00" departDelay="0.00" arrival="337.00" arrivalLane="-4714005#5_0" arrivalPos="192.55" arrivalSpeed="7.86" duration="337.00" routeLength="3590.21" waitingTime="9.00" waitingCount="3" stopTime="3.00" timeLoss="64.10" rerouteNo="4" devices="tripinfo_driver_6" vType="DEFAULT_VEHTYPE" speedFactor="1.09" vaporized=""/>
    <personinfo id="customer_0" depart="0.00" type="DEFAULT_PEDTYPE">
        <stop duration="151.00" arrival="151.00" arrivalPos="31.22" actType="waiting"/>
        <ride waitingTime="2.00" vehicle="driver_11" depart="153.00" arrival="341.00" arrivalPos="57.20" duration="188.00" routeLength="1795.76" timeLoss="70.35"/>
        <stop duration="2.00" arrival="343.00" arrivalPos="57.22" actType="waiting"/>
    </personinfo>
    <personinfo id="customer_1" depart="0.00" type="DEFAULT_PEDTYPE">
        <stop duration="89.00" arrival="89.00" arrivalPos="103.02" actType="waiting"/>
        <ride waitingTime="3.00" vehicle="driver_3" depart="92.00" arrival="356.00" arrivalPos="33.68" duration="264.00" routeLength="1800.65" timeLoss="36.84"/>
        <stop duration="2.00" arrival="358.00" arrivalPos="33.70" actType="waiting"/>
    </personinfo>
    <personinfo id="customer_29" depart="350.00" type="DEFAULT_PEDTYPE">
        <stop duration="10.00" arrival="360.00" arrivalPos="0.00" actType="waiting"/>
    </personinfo>
    <personinfo id="customer_8" depart="0.00" type="DEFAULT_PEDTYPE">
        <stop duration="136.00" arrival="136.00" arrivalPos="0.00" actType="waiting"/>
        <ride waitingTime="2.00" vehicle="driver_15" depart="138.00" arrival="360.00" arrivalPos="0.19" duration="222.00" routeLength="2030.98" timeLoss="35.59"/>
        <stop duration="2.00" arrival="362.00" arrivalPos="0.20" actType="waiting"/>
    </personinfo>
    <tripinfo id="driver_29" depart="33.00" departLane="-239914472#3_0" departPos="2.94" departSpeed="0.00" departDelay="0.00" arrival="363.00" arrivalLane="4674329#1_0" arrivalPos="579.26" arrivalSpeed="14.53" duration="330.00" routeLength="4600.76" waitingTime="0.00" waitingCount="0" stopTime="3.00" timeLoss="52.29" rerouteNo="4" devices="tripinfo_driver_29" vType="DEFAULT_VEHTYPE" speedFactor="1.09" vaporized=""/>
    <personinfo id="customer_30" depart="370.00" type="DEFAULT_PEDTYPE">
        <stop duration="10.00" arrival="380.00" arrivalPos="11.35" actType="waiting"/>
    </personinfo>
    <personinfo id="customer_19" depart="120.00" type="DEFAULT_PEDTYPE">
        <stop duration="125.00" arrival="245.00" arrivalPos="0.00" actType="waiting"/>
        <ride waitingTime="2.00" vehicle="driver_2" depart="247.00" arrival="401.00" arrivalPos="271.25" duration="154.00" routeLength="1522.86" timeLoss="19.90"/>
        <stop duration="2.00" arrival="403.00" arrivalPos="271.25" actType="waiting"/>
    </personinfo>
    <tripinfo id="driver_13" depart="0.00" departLane="-25224165_0" departPos="5.10" departSpeed="0.00" departDelay="0.00" arrival="417.00" arrivalLane="29224695#9_0" arrivalPos="76.21" arrivalSpeed="12.98" duration="417.00" routeLength="4450.23" waitingTime="0.00" waitingCount="0" stopTime="6.00" timeLoss="55.92" rerouteNo="5" devices="tripinfo_driver_13" vType="DEFAULT_VEHTYPE" speedFactor="1.01" vaporized=""/>
    <tripinfo id="driver_41" depart="310.00" departLane="24419111#5_0" departPos="5.10" departSpeed="0.00" departDelay="0.00" arrival="429.00" arrivalLane="-205478440#9_0" arrivalPos="0.22" arrivalSpeed="13.73" duration="119.00" routeLength="1001.98" waitingTime="0.00" waitingCount="0" stopTime="0.00" timeLoss="13.95" rerouteNo="0" devices="tripinfo_driver_41" vType="DEFAULT_VEHTYPE" speedFactor="1.02" vaporized=""/>
    <tripinfo id="driver_46" depart="364.00" departLane="25963885#2_0" departPos="5.10" departSpeed="0.00" departDelay="0.00" arrival="440.00" arrivalLane="-25963889#0_0" arrivalPos="0.20" arrivalSpeed="6.36" duration="76.00" routeLength="909.17" waitingTime="0.00" waitingCount="0" stopTime="0.00" timeLoss="14.67" rerouteNo="0" devices="tripinfo_driver_46" vType="DEFAULT_VEHTYPE" speedFactor="0.98" vaporized=""/>
    <personinfo id="customer_20" depart="140.00" type="DEFAULT_PEDTYPE">
        <stop duration="188.00" arrival="328.00" arrivalPos="0.00" actType="waiting"/>
        <ride waitingTime="3.00" vehicle="driver_34" depart="331.00" arrival="442.00" arrivalPos="83.77" duration="111.00" routeLength="1107.89" timeLoss="19.07"/>
        <stop duration="2.00" arrival="444.00" arrivalPos="83.77" actType="waiting"/>
    </personinfo>
    <personinfo id="customer_10" depart="0.00" type="DEFAULT_PEDTYPE">
        <stop duration="129.00" arrival="129.00" arrivalPos="0.00" actType="waiting"/>
        <ride waitingTime="2.00" vehicle="driver_28" depart="131.00" arrival="447.00" arrivalPos="2029.23" duration="316.00" routeLength="5965.94" timeLoss="31.06"/>
        <stop duration="2.00" arrival="449.00" arrivalPos="2029.25" actType="waiting"/>
    </personinfo>
    <personinfo id="customer_33" depart="450.00" type="DEFAULT_PEDTYPE">
        <stop duration="10.00" arrival="460.00" arrivalPos="366.93" actType="waiting"/>
    </personinfo>
    <personinfo id="customer_2" depart="0.00" type="DEFAULT_PEDTYPE">
        <stop duration="218.00" arrival="218.00" arrivalPos="0.00" actType="waiting"/>
        <ride waitingTime="2.00" vehicle="driver_0" depart="220.00" arrival="463.00" arrivalPos="213.77" duration="243.00" routeLength="2781.15" timeLoss="28.12"/>
        <stop duration="2.00" arrival="465.00" arrivalPos="213.77" actType="waiting"/>
    </personinfo>
    <tripinfo id="driver_7" depart="0.00" departLane="-24419521#6_0" departPos="5.10" departSpeed="0.00" departDelay="0.00" arrival="481.00" arrivalLane="26129050#1_0" arrivalPos="56.93" arrivalSpeed="20.51" duration="481.00" routeLength="6785.65" waitingTime="0.00" waitingCount="0" stopTime="0.00" timeLoss="40.94" rerouteNo="2" devices="tripinfo_driver_7" vType="DEFAULT_VEHTYPE" speedFactor="0.93" vaporized="traci"/>
    <tripinfo id="driver_21" depart="0.00" departLane="-25963879#1_0" departPos="3.96" departSpeed="0.00" departDelay="0.00" arrival="481.00" arrivalLane="-4982800#9_0" arrivalPos="110.96" arrivalSpeed="25.65" duration="481.00" routeLength="8548.31" waitingTime="0.00" waitingCount="0" stopTime="0.00" timeLoss="40.63" rerouteNo="3" devices="tripinfo_driver_21" vType="DEFAULT_VEHTYPE" speedFactor="1.18" vaporized="traci"/>
    <personinfo id="customer_35" depart="490.00" type="DEFAULT_PEDTYPE">
        <stop duration="10.00" arrival="500.00" arrivalPos="11.35" actType="waiting"/>
    </personinfo>
    <personinfo id="customer_36" depart="500.00" type="DEFAULT_PEDTYPE">
        <stop duration="20.00" arrival="520.00" arrivalPos="0.00" actType="waiting"/>
    </personinfo>
    <personinfo id="customer_21" depart="150.00" type="DEFAULT_PEDTYPE">
        <stop duration="257.00" arrival="407.00" arrivalPos="133.00" actType="waiting"/>
        <ride waitingTime="3.00" vehicle="driver_5" depart="410.00" arrival="523.00" arrivalPos="86.47" duration="113.00" routeLength="1067.75" timeLoss="13.79"/>
        <stop duration="2.00" arrival="525.00" arrivalPos="86.50" actType="waiting"/>
    </personinfo>
    <personinfo id="customer_22" depart="160.00" type="DEFAULT_PEDTYPE">
        <stop duration="201.00" arrival="361.00" arrivalPos="40.19" actType="waiting"/>
        <ride waitingTime="3.00" vehicle="driver_8" depart="364.00" arrival="538.00" arrivalPos="125.70" duration="174.00" routeLength="1112.38" timeLoss="20.60"/>
        <stop duration="2.00" arrival="540.00" arrivalPos="125.73" actType="waiting"/>
    </personinfo>
    <personinfo id="customer_15" depart="0.00" type="DEFAULT_PEDTYPE">
        <stop duration="153.00" arrival="153.00" arrivalPos="0.00" actType="waiting"/>
        <ride waitingTime="4.00" vehicle="driver_14" depart="157.00" arrival="547.00" arrivalPos="643.29" duration="390.00" routeLength="6606.71" timeLoss="32.56"/>
        <stop duration="2.00" arrival="549.00" arrivalPos="643.30" actType="waiting"/>
    </personinfo>
    <tripinfo id="driver_31" depart="37.00" departLane="26190910#1_0" departPos="5.10" departSpeed="0.00" departDelay="0.00" arrival="591.00" arrivalLane="4982800#6_0" arrivalPos="76.59" arrivalSpeed="0.10" duration="554.00" routeLength="5572.00" waitingTime="0.00" waitingCount="0" stopTime="3.00" timeLoss="68.18" rerouteNo="2" devices="tripinfo_driver_31 person_driver_31" vType="DEFAULT_VEHTYPE" speedFactor="0.90" vaporized="traci"/>
    <personinfo id="customer_18" depart="70.00" type="DEFAULT_PEDTYPE">
        <stop duration="264.00" arrival="334.00" arrivalPos="215.14" actType="waiting"/>
        <ride waitingTime="4.00" vehicle="driver_31" depart="338.00" arrival="590.00" arrivalPos="76.59" duration="252.00" routeLength="2372.00" timeLoss="33.08"/>
        <stop duration="2.00" arrival="592.00" arrivalPos="76.59" actType="waiting"/>
    </personinfo>
    <personinfo id="customer_32" depart="410.00" type="DEFAULT_PEDTYPE">
        <stop duration="127.00" arrival="537.00" arrivalPos="0.00" actType="waiting"/>
        <ride waitingTime="3.00" vehicle="driver_12" depart="540.00" arrival="609.00" arrivalPos="156.12" duration="69.00" routeLength="788.41" timeLoss="12.10"/>
        <stop duration="2.00" arrival="611.00" arrivalPos="156.14" actType="waiting"/>
    </personinfo>
    <tripinfo id="driver_24" depart="0.00" departLane="-713186223#4_0" departPos="5.10" departSpeed="0.00" departDelay="0.00" arrival="630.00" arrivalLane="-102624600#2_0" arrivalPos="464.37" arrivalSpeed="22.76" duration="630.00" routeLength="9087.07" waitingTime="1.00" waitingCount="1" stopTime="5.00" timeLoss="65.07" rerouteNo="4" devices="tripinfo_driver_24 person_driver_24" vType="DEFAULT_VEHTYPE" speedFactor="1.03" vaporized="traci"/>
    <tripinfo id="driver_42" depart="311.00" departLane="-113689484_0" departPos="5.10" departSpeed="0.00" departDelay="0.00" arrival="630.00" arrivalLane="1000333560#1_1" arrivalPos="41.61" arrivalSpeed="13.99" duration="319.00" routeLength="7752.14" waitingTime="2.00" waitingCount="1" stopTime="0.00" timeLoss="29.77" rerouteNo="0" devices="tripinfo_driver_42" vType="DEFAULT_VEHTYPE" speedFactor="1.02" vaporized="traci"/>
    <tripinfo id="driver_11" depart="0.00" departLane="-4714005#1_0" departPos="0.20" departSpeed="0.00" departDelay="0.00" arrival="630.00" arrivalLane="201750671_0" arrivalPos="71.24" arrivalSpeed="22.73" duration="630.00" routeLength="6835.39" waitingTime="39.00" waitingCount="7" stopTime="8.00" timeLoss="163.26" rerouteNo="4" devices="tripinfo_driver_11 person_driver_11" vType="DEFAULT_VEHTYPE" speedFactor="1.16" vaporized="traci"/>
    <tripinfo id="driver_49" depart="418.00" departLane="-24419521#5_0" departPos="5.10" departSpeed="0.00" departDelay="0.00" arrival="630.00" arrivalLane=":266674926_7_0" arrivalPos="12.34" arrivalSpeed="7.40" duration="212.00" routeLength="2355.64" waitingTime="0.00" waitingCount="0" stopTime="0.00" timeLoss="23.25" rerouteNo="0" devices="tripinfo_driver_49" vType="DEFAULT_VEHTYPE" speedFactor="1.00" vaporized="traci"/>
    <tripinfo id="driver_50" depart="430.00" departLane="24419091#1_0" departPos="5.10" departSpeed="0.00" departDelay="0.00" arrival="630.00" arrivalLane="911561048#1_0" arrivalPos="0.22" arrivalSpeed="13.10" duration="200.00" routeLength="1952.46" waitingTime="0.00" waitingCount="0" stopTime="0.00" timeLoss="25.39" rerouteNo="0" devices="tripinfo_driver_50" vType="DEFAULT_VEHTYPE" speedFactor="1.02" vaporized="traci"/>
    <tripinfo id="driver_52" depart="450.00" departLane="4587836#0_0" departPos="5.10" departSpeed="0.00" departDelay="0.00" arrival="630.00" arrivalLane="4592762#4_0" arrivalPos="45.07" arrivalSpeed="13.12" duration="180.00" routeLength="2429.85" waitingTime="0.00" waitingCount="0" stopTime="0.00" timeLoss="16.26" rerouteNo="0" devices="tripinfo_driver_52" vType="DEFAULT_VEHTYPE" speedFactor="1.00" vaporized="traci"/>
    <tripinfo id="driver_27" depart="0.00" departLane="-102624600#1_0" departPos="5.10" departSpeed="0.00" departDelay="0.00" arrival="630.00" arrivalLane="-102624600#2_0" arrivalPos="46.19" arrivalSpeed="12.54" duration="630.00" routeLength="11658.53" waitingTime="1.00" waitingCount="1" stopTime="5.00" timeLoss="77.21" rerouteNo="4" devices="tripinfo_driver_27 person_driver_27" vType="DEFAULT_VEHTYPE" speedFactor="1.04" vaporized="traci"/>
    <tripinfo id="driver_47" depart="370.00" departLane="113689484_0" departPos="5.10" departSpeed="0.00" departDelay="0.00" arrival="632.00" arrivalLane="-911561049_0" arrivalPos="1.27" arrivalSpeed="12.65" duration="262.00" routeLength="5255.54" waitingTime="0.00" waitingCount="0" stopTime="0.00" timeLoss="21.95" rerouteNo="0" devices="tripinfo_driver_47" vType="DEFAULT_VEHTYPE" speedFactor="0.98" vaporized="traci"/>
    <tripinfo id="driver_51" depart="441.00" departLane="-4643142#2_0" departPos="5.10" departSpeed="0.00" departDelay="0.00" arrival="633.00" arrivalLane="4592720#0_0" arrivalPos="14.18" arrivalSpeed="10.07" duration="192.00" routeLength="2458.00" waitingTime="0.00" waitingCount="0" stopTime="0.00" timeLoss="29.57" rerouteNo="1" devices="tripinfo_driver_51" vType="DEFAULT_VEHTYPE" speedFactor="0.97" vaporized="traci"/>
    <tripinfo id="driver_34" depart="120.00" departLane="26094856#0_0" departPos="5.10" departSpeed="0.00" departDelay="0.00" arrival="634.00" arrivalLane="-26533726#1_0" arrivalPos="143.61" arrivalSpeed="14.64" duration="514.00" routeLength="5506.10" waitingTime="2.00" waitingCount="2" stopTime="5.00" timeLoss="72.01" rerouteNo="3" devices="tripinfo_driver_34 person_driver_34" vType="DEFAULT_VEHTYPE" speedFactor="1.10" vaporized="traci"/>
    <personinfo id="customer_42" depart="620.00" type="DEFAULT_PEDTYPE">
        <stop duration="20.00" arrival="640.00" arrivalPos="0.00" actType="waiting"/>
    </personinfo>
    <tripinfo id="driver_20" depart="0.00" departLane="-28233903_0" departPos="5.10" departSpeed="0.00" departDelay="0.00" arrival="640.00" arrivalLane="-4984203#0_0" arrivalPos="120.70" arrivalSpeed="13.25" duration="640.00" routeLength="6913.13" waitingTime="1.00" waitingCount="1" stopTime="11.00" timeLoss="87.56" rerouteNo="8" devices="tripinfo_driver_20 person_driver_20" vType="DEFAULT_VEHTYPE" speedFactor="1.01" vaporized=""/>
    <tripinfo id="driver_36" depart="160.00" departLane="-4813233#2_0" departPos="5.10" departSpeed="0.00" departDelay="0.00" arrival="641.00" arrivalLane="226217471_0" arrivalPos="9.64" arrivalSpeed="7.57" duration="481.00" routeLength="4601.54" waitingTime="2.00" waitingCount="1" stopTime="0.00" timeLoss="62.61" rerouteNo="1" devices="tripinfo_driver_36" vType="DEFAULT_VEHTYPE" speedFactor="0.97" vaporized="traci"/>
    <tripinfo id="driver_58" depart="620.00" departLane="-26190930#3_0" departPos="5.10" departSpeed="0.00" departDelay="0.00" arrival="642.00" arrivalLane="-26190916#1_0" arrivalPos="13.85" arrivalSpeed="8.32" duration="22.00" routeLength="238.29" waitingTime="0.00" waitingCount="0" stopTime="0.00" timeLoss="3.35" rerouteNo="0" devices="tripinfo_driver_58" vType="DEFAULT_VEHTYPE" speedFactor="1.06" vaporized="traci"/>
    <tripinfo id="driver_14" depart="0.00" departLane="-201750667#0_0" departPos="0.20" departSpeed="0.00" departDelay="0.00" arrival="663.00" arrivalLane=":288562605_0_0" arrivalPos="11.46" arrivalSpeed="6.45" duration="663.00" routeLength="9265.69" waitingTime="2.00" waitingCount="2" stopTime="5.00" timeLoss="78.22" rerouteNo="3" devices="tripinfo_driver_14 person_driver_14" vType="DEFAULT_VEHTYPE" speedFactor="0.92" vaporized="traci"/>
    <tripinfo id="driver_0" depart="0.00" departLane="-4687361#10_0" departPos="5.10" departSpeed="0.00" departDelay="0.00" arrival="670.00" arrivalLane="226217472#7_0" arrivalPos="6.75" arrivalSpeed="14.05" duration="670.00" routeLength="7035.79" waitingTime="1.00" waitingCount="1" stopTime="8.00" timeLoss="74.10" rerouteNo="5" devices="tripinfo_driver_0 person_driver_0" vType="DEFAULT_VEHTYPE" speedFactor="1.03" vaporized="traci"/>
    <personinfo id="customer_24" depart="230.00" type="DEFAULT_PEDTYPE">
        <stop duration="56.00" arrival="286.00" arrivalPos="0.00" actType="waiting"/>
        <ride waitingTime="3.00" vehicle="driver_37" depart="289.00" arrival="673.00" arrivalPos="2674.03" duration="384.00" routeLength="7856.08" timeLoss="34.11"/>
        <stop duration="2.00" arrival="675.00" arrivalPos="2674.04" actType="waiting"/>
    </personinfo>
    <personinfo id="customer_7" depart="0.00" type="DEFAULT_PEDTYPE">
        <stop duration="290.00" arrival="290.00" arrivalPos="122.88" actType="waiting"/>
        <ride waitingTime="3.00" vehicle="driver_1" depart="293.00" arrival="689.00" arrivalPos="216.86" duration="396.00" routeLength="4430.63" timeLoss="56.39"/>
        <stop duration="2.00" arrival="691.00" arrivalPos="216.86" actType="waiting"/>
    </personinfo>
    <tripinfo id="driver_37" depart="174.00" departLane="-1000333561_0" departPos="5.10" departSpeed="0.00" departDelay="0.00" arrival="703.00" arrivalLane="-102624600#1_0" arrivalPos="471.19" arrivalSpeed="23.58" duration="529.00" routeLength="10275.45" waitingTime="3.00" waitingCount="2" stopTime="5.00" timeLoss="68.33" rerouteNo="3" devices="tripinfo_driver_37 person_driver_37" vType="DEFAULT_VEHTYPE" speedFactor="1.08" vaporized="traci"/>
    <tripinfo id="driver_39" depart="230.00" departLane="-25365417#1_0" departPos="0.20" departSpeed="0.00" departDelay="0.00" arrival="711.00" arrivalLane="-239921759#3_0" arrivalPos="19.05" arrivalSpeed="15.72" duration="481.00" routeLength="5849.90" waitingTime="0.00" waitingCount="0" stopTime="0.00" timeLoss="53.00" rerouteNo="2" devices="tripinfo_driver_39" vType="DEFAULT_VEHTYPE" speedFactor="0.99" vaporized="traci"/>
    <personinfo id="customer_4" depart="0.00" type="DEFAULT_PEDTYPE">
        <stop duration="559.00" arrival="559.00" arrivalPos="111.71" actType="waiting"/>
        <ride waitingTime="4.00" vehicle="driver_10" depart="563.00" arrival="724.00" arrivalPos="78.49" duration="161.00" routeLength="1994.91" timeLoss="22.58"/>
        <stop duration="2.00" arrival="726.00" arrivalPos="78.50" actType="waiting"/>
    </personinfo>
    <tripinfo id="driver_10" depart="0.00" departLane="-25011937_0" departPos="5.10" departSpeed="0.00" departDelay="0.00" arrival="731.00" arrivalLane="-225455047#0_0" arrivalPos="1.85" arrivalSpeed="2.44" duration="731.00" routeLength="10284.19" waitingTime="2.00" waitingCount="2" stopTime="5.00" timeLoss="72.57" rerouteNo="3" devices="tripinfo_driver_10 person_driver_10" vType="DEFAULT_VEHTYPE" speedFactor="0.94" vaporized="traci"/>
    <personinfo id="customer_46" depart="730.00" type="DEFAULT_PEDTYPE">
        <stop duration="10.00" arrival="740.00" arrivalPos="0.00" actType="waiting"/>
    </personinfo>
    <personinfo id="customer_26" depart="250.00" type="DEFAULT_PEDTYPE">
        <stop duration="214.00" arrival="464.00" arrivalPos="0.00" actType="waiting"/>
        <ride waitingTime="4.00" vehicle="driver_35" depart="468.00" arrival="752.00" arrivalPos="55.12" duration="284.00" routeLength="2384.40" timeLoss="79.48"/>
        <stop duration="2.00" arrival="754.00" arrivalPos="55.12" actType="waiting"/>
    </personinfo>
    <personinfo id="customer_37" depart="510.00" type="DEFAULT_PEDTYPE">
        <stop duration="81.00" arrival="591.00" arrivalPos="24.48" actType="waiting"/>
        <ride waitingTime="3.00" vehicle="driver_22" depart="594.00" arrival="754.00" arrivalPos="122.90" duration="160.00" routeLength="1726.70" timeLoss="17.72"/>
        <stop duration="2.00" arrival="756.00" arrivalPos="122.91" actType="waiting"/>
    </personinfo>
    <tripinfo id="driver_15" depart="0.00" departLane="-26094862#4_0" departPos="5.10" departSpeed="0.00" departDelay="0.00" arrival="778.00" arrivalLane="-4578027#0_0" arrivalPos="643.30" arrivalSpeed="20.32" duration="778.00" routeLength="9999.78" waitingTime="1.00" waitingCount="1" stopTime="11.00" timeLoss="100.03" rerouteNo="4" devices="tripinfo_driver_15 person_driver_15" vType="DEFAULT_VEHTYPE" speedFactor="0.95" vaporized=""/>
    <tripinfo id="driver_1" depart="0.00" departLane="261515949#0_0" departPos="4.30" departSpeed="0.00" departDelay="0.00" arrival="796.00" arrivalLane=":30010973_7_0" arrivalPos="1.84" arrivalSpeed="10.30" duration="796.00" routeLength="7225.47" waitingTime="96.00" waitingCount="5" stopTime="5.00" timeLoss="200.31" rerouteNo="3" devices="tripinfo_driver_1 person_driver_1" vType="DEFAULT_VEHTYPE" speedFactor="0.83" vaporized="traci"/>
    <tripinfo id="driver_45" depart="360.00" departLane="19441161#4_0" departPos="5.10" departSpeed="0.00" departDelay="0.00" arrival="805.00" arrivalLane=":266674926_7_0" arrivalPos="5.22" arrivalSpeed="5.89" duration="445.00" routeLength="3683.08" waitingTime="0.00" waitingCount="0" stopTime="0.00" timeLoss="46.50" rerouteNo="0" devices="tripinfo_driver_45" vType="DEFAULT_VEHTYPE" speedFactor="0.96" vaporized="traci"/>
    <personinfo id="customer_31" depart="390.00" type="DEFAULT_PEDTYPE">
        <stop duration="47.00" arrival="437.00" arrivalPos="0.00" actType="waiting"/>
        <ride waitingTime="3.00" vehicle="driver_25" depart="440.00" arrival="814.00" arrivalPos="962.26" duration="374.00" routeLength="7036.82" timeLoss="44.54"/>
        <stop duration="2.00" arrival="816.00" arrivalPos="962.26" actType="waiting"/>
    </personinfo>