<?xml version="1.0" encoding="UTF-8"?>

<!-- generated on 2022-02-23 12:22:06 by Eclipse SUMO GUI Version 1.10.0
<configuration xmlns:xsi="http://www.w3.org/2001/XMLSchema-instance" xsi:noNamespaceSchemaLocation="http://sumo.dlr.de/xsd/sumoConfiguration.xsd">

    <input>
        <net-file value="net_config/manhattan.net.xml"/>
        <route-files value="net_config/random_trips.trips.xml"/>
        <additional-files value="net_config/add.add.xml"/>
    </input>

    <output>
        <tripinfo-output value="net_config/tripinfo.xml"/>
    </output>

    <time>
        <step-length value="1"/>
    </time>

    <processing>
        <time-to-teleport value="0"/>
    </processing>

    <taxi_device>
        <device.taxi.dispatch-algorithm value="traci"/>
        <device.taxi.idle-algorithm value="randomCircling"/>
    </taxi_device>

    <traci_server>
        <remote-port value="52217"/>
    </traci_server>

    <gui_only>
        <gui-settings-file value="net_config/gui-settings.cfg"/>
        <tracker-interval value="1"/>
    </gui_only>

</configuration>
-->

<tripinfos xmlns:xsi="http://www.w3.org/2001/XMLSchema-instance" xsi:noNamespaceSchemaLocation="http://sumo.dlr.de/xsd/tripinfo_file.xsd">
    <personinfo id="customer_0" depart="5.00" type="DEFAULT_PEDTYPE">
        <ride waitingTime="2.00" vehicle="NULL" depart="-1" arrival="7.00" arrivalPos="85.60" duration="7.00" routeLength="-1.00" timeLoss="-0.00"/>
        <stop duration="0.00" arrival="7.00" arrivalPos="14.00" actType="last stage removed"/>
    </personinfo>
    <tripinfo id="driver_3" depart="6.00" departLane="gneE403_0" departPos="22.64" departSpeed="0.00" departDelay="0.00" arrival="11.00" arrivalLane="gneE403_0" arrivalPos="44.11" arrivalSpeed="8.57" duration="5.00" routeLength="21.46" waitingTime="0.00" waitingCount="0" stopTime="0.00" timeLoss="2.70" rerouteNo="5" devices="tripinfo_driver_3 taxi_driver_3" vType="driver" speedFactor="1.10" vaporized="traci">
        <taxi customers="0" occupiedDistance="0.00" occupiedTime="0.00"/>
    </tripinfo>
    <tripinfo id="driver_0" depart="0.00" departLane="-gneE401_0" departPos="50.50" departSpeed="0.00" departDelay="0.00" arrival="12.00" arrivalLane="-gneE400_0" arrivalPos="41.13" arrivalSpeed="12.78" duration="12.00" routeLength="90.63" waitingTime="0.00" waitingCount="0" stopTime="0.00" timeLoss="5.04" rerouteNo="14" devices="tripinfo_driver_0 taxi_driver_0" vType="driver" speedFactor="1.03" vaporized="traci">
        <taxi customers="0" occupiedDistance="0.00" occupiedTime="0.00"/>
    </tripinfo>
    <tripinfo id="driver_4" depart="7.00" departLane="gneE326_0" departPos="3.95" departSpeed="0.00" departDelay="0.00" arrival="13.00" arrivalLane="gneE326_0" arrivalPos="30.41" arrivalSpeed="9.04" duration="6.00" routeLength="26.46" waitingTime="0.00" waitingCount="0" stopTime="0.00" timeLoss="3.00" rerouteNo="6" devices="tripinfo_driver_4 taxi_driver_4" vType="driver" speedFactor="0.94" vaporized="traci">
        <taxi customers="0" occupiedDistance="0.00" occupiedTime="0.00"/>
    </tripinfo>
    <tripinfo id="driver_5" depart="8.00" departLane="gneE173_0" departPos="54.23" departSpeed="0.00" departDelay="0.00" arrival="15.00" arrivalLane=":gneJ71_9_0" arrivalPos="1.28" arrivalSpeed="5.30" duration="7.00" routeLength="32.66" waitingTime="0.00" waitingCount="0" stopTime="0.00" timeLoss="3.76" rerouteNo="8" devices="tripinfo_driver_5 taxi_driver_5" vType="driver" speedFactor="1.01" vaporized="traci">
        <taxi customers="0" occupiedDistance="0.00" occupiedTime="0.00"/>
    </tripinfo>
    <tripinfo id="driver_9" depart="15.00" departLane="gneE486_0" departPos="48.93" departSpeed="0.00" departDelay="0.00" arrival="17.00" arrivalLane="gneE486_0" arrivalPos="50.44" arrivalSpeed="1.51" duration="2.00" routeLength="1.51" waitingTime="0.00" waitingCount="0" stopTime="0.00" timeLoss="0.92" rerouteNo="2" devices="tripinfo_driver_9 taxi_driver_9" vType="driver" speedFactor="0.98" vaporized="traci">
        <taxi customers="0" occupiedDistance="0.00" occupiedTime="0.00"/>
    </tripinfo>
    <tripinfo id="driver_6" depart="10.00" departLane="gneE94_0" departPos="46.59" departSpeed="0.00" departDelay="0.00" arrival="19.00" arrivalLane="-gneE175_0" arrivalPos="1.70" arrivalSpeed="6.67" duration="9.00" routeLength="49.74" waitingTime="0.00" waitingCount="0" stopTime="0.00" timeLoss="4.58" rerouteNo="11" devices="tripinfo_driver_6 taxi_driver_6" vType="driver" speedFactor="1.05" vaporized="traci">
        <taxi customers="0" occupiedDistance="0.00" occupiedTime="0.00"/>
    </tripinfo>
    <tripinfo id="driver_1" depart="0.00" departLane="-gneE328_0" departPos="3.73" departSpeed="0.00" departDelay="0.00" arrival="20.00" arrivalLane="-gneE474_0" arrivalPos="52.65" arrivalSpeed="15.50" duration="20.00" routeLength="148.71" waitingTime="0.00" waitingCount="0" stopTime="0.00" timeLoss="4.83" rerouteNo="23" devices="tripinfo_driver_1 taxi_driver_1" vType="driver" speedFactor="0.97" vaporized="traci">
        <taxi customers="0" occupiedDistance="0.00" occupiedTime="0.00"/>
    </tripinfo>
    <tripinfo id="driver_10" depart="16.00" departLane="-gneE371_0" departPos="7.62" departSpeed="0.00" departDelay="0.00" arrival="22.00" arrivalLane="-gneE371_0" arrivalPos="34.05" arrivalSpeed="9.23" duration="6.00" routeLength="26.43" waitingTime="0.00" waitingCount="0" stopTime="0.00" timeLoss="3.49" rerouteNo="6" devices="tripinfo_driver_10 taxi_driver_10" vType="driver" speedFactor="0.97" vaporized="traci">
        <taxi customers="0" occupiedDistance="0.00" occupiedTime="0.00"/>
    </tripinfo>
    <tripinfo id="driver_13" depart="23.00" departLane="gneE259_0" departPos="48.55" departSpeed="0.00" departDelay="0.00" arrival="24.00" arrivalLane="gneE259_0" arrivalPos="48.55" arrivalSpeed="0.00" duration="1.00" routeLength="0.00" waitingTime="0.00" waitingCount="0" stopTime="0.00" timeLoss="0.00" rerouteNo="1" devices="tripinfo_driver_13 taxi_driver_13" vType="driver" speedFactor="0.99" vaporized="traci">
        <taxi customers="0" occupiedDistance="0.00" occupiedTime="0.00"/>
    </tripinfo>
    <personinfo id="customer_5" depart="24.00" type="DEFAULT_PEDTYPE">
        <ride waitingTime="2.00" vehicle="NULL" depart="-1" arrival="26.00" arrivalPos="85.60" duration="26.00" routeLength="-1.00" timeLoss="-0.00"/>
        <stop duration="0.00" arrival="26.00" arrivalPos="27.00" actType="last stage removed"/>
    </personinfo>
    <tripinfo id="driver_8" depart="11.00" departLane="gneE1_0" departPos="35.21" departSpeed="0.00" departDelay="0.00" arrival="36.00" arrivalLane="gneE3_0" arrivalPos="52.95" arrivalSpeed="13.35" duration="25.00" routeLength="217.74" waitingTime="0.00" waitingCount="0" stopTime="0.00" timeLoss="5.44" rerouteNo="29" devices="tripinfo_driver_8 taxi_driver_8" vType="driver" speedFactor="0.98" vaporized="traci">
        <taxi customers="0" occupiedDistance="0.00" occupiedTime="0.00"/>
    </tripinfo>
    <personinfo id="customer_9" depart="34.00" type="DEFAULT_PEDTYPE">
        <ride waitingTime="3.00" vehicle="NULL" depart="-1" arrival="37.00" arrivalPos="85.60" duration="37.00" routeLength="-1.00" timeLoss="-0.00"/>
        <stop duration="0.00" arrival="37.00" arrivalPos="31.00" actType="last stage removed"/>
    </personinfo>
    <personinfo id="customer_3" depart="21.00" type="DEFAULT_PEDTYPE">
        <ride waitingTime="18.00" vehicle="NULL" depart="-1" arrival="39.00" arrivalPos="85.60" duration="39.00" routeLength="-1.00" timeLoss="-0.00"/>
        <stop duration="0.00" arrival="39.00" arrivalPos="0.00" actType="last stage removed"/>
    </personinfo>
    <tripinfo id="driver_11" depart="19.00" departLane="gneE454_0" departPos="49.65" departSpeed="0.00" departDelay="0.00" arrival="40.00" arrivalLane="-gneE463_0" arrivalPos="16.83" arrivalSpeed="9.12" duration="21.00" routeLength="166.76" waitingTime="0.00" waitingCount="0" stopTime="0.00" timeLoss="7.98" rerouteNo="26" devices="tripinfo_driver_11 taxi_driver_11" vType="driver" speedFactor="1.04" vaporized="traci">
        <taxi customers="0" occupiedDistance="0.00" occupiedTime="0.00"/>
    </tripinfo>
    <tripinfo id="driver_19" depart="36.00" departLane="-gneE490_0" departPos="29.35" departSpeed="0.00" departDelay="0.00" arrival="41.00" arrivalLane="-gneE490_0" arrivalPos="47.91" arrivalSpeed="7.51" duration="5.00" routeLength="18.56" waitingTime="0.00" waitingCount="0" stopTime="0.00" timeLoss="2.77" rerouteNo="5" devices="tripinfo_driver_19 taxi_driver_19" vType="driver" speedFactor="1.00" vaporized="traci">
        <taxi customers="0" occupiedDistance="0.00" occupiedTime="0.00"/>
    </tripinfo>
    <tripinfo id="driver_20" depart="36.00" departLane="-gneE286_0" departPos="59.88" departSpeed="0.00" departDelay="0.00" arrival="43.00" arrivalLane=":gneJ140_6_0" arrivalPos="5.32" arrivalSpeed="5.61" duration="7.00" routeLength="31.04" waitingTime="0.00" waitingCount="0" stopTime="0.00" timeLoss="2.54" rerouteNo="8" devices="tripinfo_driver_20 taxi_driver_20" vType="driver" speedFactor="0.92" vaporized="traci">
        <taxi customers="0" occupiedDistance="0.00" occupiedTime="0.00"/>
    </tripinfo>
    <tripinfo id="driver_17" depart="31.00" departLane="-gneE32_0" departPos="74.95" departSpeed="0.00" departDelay="0.00" arrival="47.00" arrivalLane=":gneJ41_9_0" arrivalPos="3.81" arrivalSpeed="5.75" duration="16.00" routeLength="109.10" waitingTime="0.00" waitingCount="0" stopTime="0.00" timeLoss="3.69" rerouteNo="19" devices="tripinfo_driver_17 taxi_driver_17" vType="driver" speedFactor="0.98" vaporized="traci">
        <taxi customers="0" occupiedDistance="0.00" occupiedTime="0.00"/>
    </tripinfo>
    <tripinfo id="driver_22" depart="41.00" departLane="gneE39_0" departPos="63.81" departSpeed="0.00" departDelay="0.00" arrival="47.00" arrivalLane="gneE39_0" arrivalPos="88.31" arrivalSpeed="5.37" duration="6.00" routeLength="24.50" waitingTime="0.00" waitingCount="0" stopTime="0.00" timeLoss="2.84" rerouteNo="6" devices="tripinfo_driver_22 taxi_driver_22" vType="driver" speedFactor="1.03" vaporized="traci">
        <taxi customers="0" occupiedDistance="0.00" occupiedTime="0.00"/>
    </tripinfo>
    <personinfo id="customer_13" depart="48.00" type="DEFAULT_PEDTYPE">
        <ride waitingTime="2.00" vehicle="NULL" depart="-1" arrival="50.00" arrivalPos="85.60" duration="50.00" routeLength="-1.00" timeLoss="-0.00"/>
        <stop duration="0.00" arrival="50.00" arrivalPos="31.00" actType="last stage removed"/>
    </personinfo>
    <personinfo id="customer_14" depart="50.00" type="DEFAULT_PEDTYPE">
        <ride waitingTime="2.00" vehicle="NULL" depart="-1" arrival="52.00" arrivalPos="85.60" duration="52.00" routeLength="-1.00" timeLoss="-0.00"/>
        <stop duration="0.00" arrival="52.00" arrivalPos="29.00" actType="last stage removed"/>
    </personinfo>
    <tripinfo id="driver_25" depart="53.00" departLane="gneE120_0" departPos="8.81" departSpeed="0.00" departDelay="0.00" arrival="58.00" arrivalLane="gneE120_0" arrivalPos="28.27" arrivalSpeed="7.33" duration="5.00" routeLength="19.46" waitingTime="0.00" waitingCount="0" stopTime="0.00" timeLoss="2.52" rerouteNo="5" devices="tripinfo_driver_25 taxi_driver_25" vType="driver" speedFactor="1.09" vaporized="traci">
        <taxi customers="0" occupiedDistance="0.00" occupiedTime="0.00"/>
    </tripinfo>
    <tripinfo id="driver_21" depart="41.00" departLane="gneE323_0" departPos="24.07" departSpeed="0.00" departDelay="0.00" arrival="62.00" arrivalLane=":gneJ205_5_0" arrivalPos="13.39" arrivalSpeed="7.57" duration="21.00" routeLength="169.54" waitingTime="0.00" waitingCount="0" stopTime="0.00" timeLoss="7.62" rerouteNo="24" devices="tripinfo_driver_21 taxi_driver_21" vType="driver" speedFactor="0.95" vaporized="traci">
        <taxi customers="0" occupiedDistance="0.00" occupiedTime="0.00"/>
    </tripinfo>
    <personinfo id="customer_11" depart="43.00" type="DEFAULT_PEDTYPE">
        <ride waitingTime="19.00" vehicle="NULL" depart="-1" arrival="62.00" arrivalPos="89.60" duration="62.00" routeLength="-1.00" timeLoss="-0.00"/>
        <stop duration="0.00" arrival="62.00" arrivalPos="11.00" actType="last stage removed"/>
    </personinfo>
    <tripinfo id="driver_29" depart="62.00" departLane="-gneE143_0" departPos="33.68" departSpeed="0.00" departDelay="0.00" arrival="66.00" arrivalLane="-gneE143_0" arrivalPos="47.05" arrivalSpeed="6.34" duration="4.00" routeLength="13.37" waitingTime="0.00" waitingCount="0" stopTime="0.00" timeLoss="1.97" rerouteNo="4" devices="tripinfo_driver_29 taxi_driver_29" vType="driver" speedFactor="1.00" vaporized="traci">
        <taxi customers="0" occupiedDistance="0.00" occupiedTime="0.00"/>
    </tripinfo>
    <tripinfo id="driver_26" depart="56.00" departLane="gneE301_0" departPos="83.97" departSpeed="0.00" departDelay="0.00" arrival="67.00" arrivalLane="gneE372_0" arrivalPos="76.40" arrivalSpeed="10.88" duration="11.00" routeLength="87.06" waitingTime="0.00" waitingCount="0" stopTime="0.00" timeLoss="2.81" rerouteNo="13" devices="tripinfo_driver_26 taxi_driver_26" vType="driver" speedFactor="1.00" vaporized="traci">
        <taxi customers="0" occupiedDistance="0.00" occupiedTime="0.00"/>
    </tripinfo>
    <personinfo id="customer_18" depart="67.00" type="DEFAULT_PEDTYPE">
        <ride waitingTime="2.00" vehicle="NULL" depart="-1" arrival="69.00" arrivalPos="85.60" duration="69.00" routeLength="-1.00" timeLoss="-0.00"/>
        <stop duration="0.00" arrival="69.00" arrivalPos="44.00" actType="last stage removed"/>
    </personinfo>
    <tripinfo id="driver_33" depart="68.00" departLane="gneE554_0" departPos="31.37" departSpeed="0.00" departDelay="0.00" arrival="73.00" arrivalLane="gneE554_0" arrivalPos="51.06" arrivalSpeed="7.53" duration="5.00" routeLength="19.69" waitingTime="0.00" waitingCount="0" stopTime="0.00" timeLoss="2.41" rerouteNo="5" devices="tripinfo_driver_33 taxi_driver_33" vType="driver" speedFactor="0.95" vaporized="traci">
        <taxi customers="0" occupiedDistance="0.00" occupiedTime="0.00"/>
    </tripinfo>
    <tripinfo id="16" depart="16.00" departLane="gneE135_0" departPos="5.10" departSpeed="0.00" departDelay="0.00" arrival="76.00" arrivalLane="gneE71_0" arrivalPos="85.60" arrivalSpeed="14.19" duration="60.00" routeLength="579.87" waitingTime="0.00" waitingCount="0" stopTime="0.00" timeLoss="19.17" rerouteNo="1" devices="tripinfo_16 routing_16" vType="DEFAULT_VEHTYPE" speedFactor="0.91" vaporized=""/>
    <tripinfo id="driver_27" depart="60.00" departLane="gneE421_0" departPos="40.26" departSpeed="0.00" departDelay="0.00" arrival="77.00" arrivalLane="gneE404_0" arrivalPos="81.72" arrivalSpeed="7.55" duration="17.00" routeLength="141.25" waitingTime="0.00" waitingCount="0" stopTime="0.00" timeLoss="5.94" rerouteNo="20" devices="tripinfo_driver_27 taxi_driver_27" vType="driver" speedFactor="1.05" vaporized="traci">
        <taxi customers="0" occupiedDistance="0.00" occupiedTime="0.00"/>
    </tripinfo>
    <tripinfo id="10" depart="10.00" departLane="gneE412_0" departPos="5.10" departSpeed="0.00" departDelay="0.00" arrival="78.00" arrivalLane="gneE301_0" arrivalPos="85.60" arrivalSpeed="10.79" duration="68.00" routeLength="669.76" waitingTime="0.00" waitingCount="0" stopTime="0.00" timeLoss="9.45" rerouteNo="1" devices="tripinfo_10 routing_10" vType="DEFAULT_VEHTYPE" speedFactor="1.09" vaporized=""/>
    <tripinfo id="25" depart="25.00" departLane="-gneE479_0" departPos="5.10" departSpeed="0.00" departDelay="0.00" arrival="79.00" arrivalLane="-gneE313_0" arrivalPos="85.60" arrivalSpeed="16.77" duration="54.00" routeLength="580.29" waitingTime="0.00" waitingCount="0" stopTime="0.00" timeLoss="9.67" rerouteNo="1" devices="tripinfo_25 routing_25" vType="DEFAULT_VEHTYPE" speedFactor="0.97" vaporized=""/>
    <tripinfo id="driver_34" depart="74.00" departLane="-gneE300_0" departPos="67.58" departSpeed="0.00" departDelay="0.00" arrival="80.00" arrivalLane=":gneJ165_1_0" arrivalPos="3.71" arrivalSpeed="4.30" duration="6.00" routeLength="21.73" waitingTime="0.00" waitingCount="0" stopTime="0.00" timeLoss="3.32" rerouteNo="7" devices="tripinfo_driver_34 taxi_driver_34" vType="driver" speedFactor="1.01" vaporized="traci">
        <taxi customers="0" occupiedDistance="0.00" occupiedTime="0.00"/>
    </tripinfo>
    <personinfo id="customer_22" depart="82.00" type="DEFAULT_PEDTYPE">
        <ride waitingTime="2.00" vehicle="NULL" depart="-1" arrival="84.00" arrivalPos="85.60" duration="84.00" routeLength="-1.00" timeLoss="-0.00"/>
        <stop duration="0.00" arrival="84.00" arrivalPos="56.00" actType="last stage removed"/>
    </personinfo>
    <tripinfo id="28" depart="28.00" departLane="-gneE274_0" departPos="5.10" departSpeed="0.00" departDelay="0.00" arrival="88.00" arrivalLane="gneE333_0" arrivalPos="85.60" arrivalSpeed="10.60" duration="60.00" routeLength="569.65" waitingTime="0.00" waitingCount="0" stopTime="0.00" timeLoss="13.19" rerouteNo="1" devices="tripinfo_28 routing_28" vType="DEFAULT_VEHTYPE" speedFactor="0.95" vaporized=""/>
    <tripinfo id="1" depart="1.00" departLane="-gneE381_0" departPos="5.10" departSpeed="0.00" departDelay="0.00" arrival="90.00" arrivalLane="-gneE327_0" arrivalPos="85.60" arrivalSpeed="8.16" duration="89.00" routeLength="868.92" waitingTime="0.00" waitingCount="0" stopTime="0.00" timeLoss="22.60" rerouteNo="1" devices="tripinfo_1 routing_1" vType="DEFAULT_VEHTYPE" speedFactor="0.94" vaporized=""/>
    <personinfo id="customer_25" depart="90.00" type="DEFAULT_PEDTYPE">
        <ride waitingTime="2.00" vehicle="NULL" depart="-1" arrival="92.00" arrivalPos="85.60" duration="92.00" routeLength="-1.00" timeLoss="-0.00"/>
        <stop duration="0.00" arrival="92.00" arrivalPos="11.00" actType="last stage removed"/>
    </personinfo>
    <tripinfo id="38" depart="38.00" departLane="gneE524_0" departPos="5.10" departSpeed="0.00" departDelay="0.00" arrival="95.00" arrivalLane="-gneE570_0" arrivalPos="85.60" arrivalSpeed="15.18" duration="57.00" routeLength="564.39" waitingTime="0.00" waitingCount="0" stopTime="0.00" timeLoss="18.76" rerouteNo="1" devices="tripinfo_38 routing_38" vType="DEFAULT_VEHTYPE" speedFactor="1.00" vaporized=""/>
    <tripinfo id="driver_38" depart="83.00" departLane="-gneE244_0" departPos="64.16" departSpeed="0.00" departDelay="0.00" arrival="95.00" arrivalLane="gneE269_0" arrivalPos="49.66" arrivalSpeed="12.73" duration="12.00" routeLength="85.28" waitingTime="0.00" waitingCount="0" stopTime="0.00" timeLoss="3.11" rerouteNo="14" devices="tripinfo_driver_38 taxi_driver_38" vType="driver" speedFactor="0.96" vaporized="traci">
        <taxi customers="0" occupiedDistance="0.00" occupiedTime="0.00"/>
    </tripinfo>
    <tripinfo id="39" depart="39.00" departLane="-gneE370_0" departPos="5.10" departSpeed="0.00" departDelay="0.00" arrival="96.00" arrivalLane="-gneE351_0" arrivalPos="85.60" arrivalSpeed="16.96" duration="57.00" routeLength="569.34" waitingTime="0.00" waitingCount="0" stopTime="0.00" timeLoss="15.84" rerouteNo="1" devices="tripinfo_39 routing_39" vType="DEFAULT_VEHTYPE" speedFactor="1.07" vaporized=""/>
    <tripinfo id="67" depart="67.00" departLane="-gneE186_0" departPos="5.10" departSpeed="0.00" departDelay="0.00" arrival="97.00" arrivalLane="-gneE85_0" arrivalPos="85.60" arrivalSpeed="14.16" duration="30.00" routeLength="275.13" waitingTime="0.00" waitingCount="0" stopTime="0.00" timeLoss="6.76" rerouteNo="1" devices="tripinfo_67 routing_67" vType="DEFAULT_VEHTYPE" speedFactor="1.11" vaporized=""/>
    <tripinfo id="driver_40" depart="90.00" departLane="-gneE254_0" departPos="16.31" departSpeed="0.00" departDelay="0.00" arrival="97.00" arrivalLane="-gneE254_0" arrivalPos="56.57" arrivalSpeed="10.11" duration="7.00" routeLength="40.26" waitingTime="0.00" waitingCount="0" stopTime="0.00" timeLoss="2.28" rerouteNo="7" devices="tripinfo_driver_40 taxi_driver_40" vType="driver" speedFactor="0.98" vaporized="traci">
        <taxi customers="0" occupiedDistance="0.00" occupiedTime="0.00"/>
    </tripinfo>
    <tripinfo id="0" depart="0.00" departLane="gneE241_0" departPos="5.10" departSpeed="0.00" departDelay="0.00" arrival="100.00" arrivalLane="-gneE123_0" arrivalPos="85.60" arrivalSpeed="11.43" duration="100.00" routeLength="1053.23" waitingTime="0.00" waitingCount="0" stopTime="0.00" timeLoss="32.55" rerouteNo="1" devices="tripinfo_0 routing_0" vType="DEFAULT_VEHTYPE" speedFactor="1.06" vaporized=""/>
    <tripinfo id="34" depart="34.00" departLane="-gneE422_0" departPos="5.10" departSpeed="0.00" departDelay="0.00" arrival="100.00" arrivalLane="-gneE373_0" arrivalPos="85.60" arrivalSpeed="8.83" duration="66.00" routeLength="664.39" waitingTime="0.00" waitingCount="0" stopTime="0.00" timeLoss="15.62" rerouteNo="1" devices="tripinfo_34 routing_34" vType="DEFAULT_VEHTYPE" speedFactor="1.02" vaporized=""/>
    <personinfo id="customer_21" depart="78.00" type="DEFAULT_PEDTYPE">
        <ride waitingTime="22.00" vehicle="NULL" depart="-1" arrival="100.00" arrivalPos="85.60" duration="100.00" routeLength="-1.00" timeLoss="-0.00"/>
        <stop duration="0.00" arrival="100.00" arrivalPos="9.00" actType="last stage removed"/>
    </personinfo>
    <tripinfo id="15" depart="15.00" departLane="gneE413_0" departPos="5.10" departSpeed="0.00" departDelay="0.00" arrival="101.00" arrivalLane="gneE334_0" arrivalPos="85.60" arrivalSpeed="12.16" duration="86.00" routeLength="874.71" waitingTime="0.00" waitingCount="0" stopTime="0.00" timeLoss="12.46" rerouteNo="1" devices="tripinfo_15 routing_15" vType="DEFAULT_VEHTYPE" speedFactor="0.82" vaporized=""/>
    <tripinfo id="driver_42" depart="91.00" departLane="-gneE239_0" departPos="49.58" departSpeed="0.00" departDelay="0.00" arrival="101.00" arrivalLane="-gneE273_0" arrivalPos="9.46" arrivalSpeed="8.05" duration="10.00" routeLength="54.51" waitingTime="0.00" waitingCount="0" stopTime="0.00" timeLoss="4.16" rerouteNo="12" devices="tripinfo_driver_42 taxi_driver_42" vType="driver" speedFactor="0.95" vaporized="traci">
        <taxi customers="0" occupiedDistance="0.00" occupiedTime="0.00"/>
    </tripinfo>
    <tripinfo id="driver_39" depart="85.00" departLane="gneE51_0" departPos="0.63" departSpeed="0.00" departDelay="0.00" arrival="102.00" arrivalLane="gneE142_0" arrivalPos="33.88" arrivalSpeed="12.22" duration="17.00" routeLength="133.04" waitingTime="0.00" waitingCount="0" stopTime="0.00" timeLoss="5.40" rerouteNo="20" devices="tripinfo_driver_39 taxi_driver_39" vType="driver" speedFactor="0.95" vaporized="traci">
        <taxi customers="0" occupiedDistance="0.00" occupiedTime="0.00"/>
    </tripinfo>
    <tripinfo id="43" depart="43.00" departLane="gneE97_0" departPos="5.10" departSpeed="0.00" departDelay="0.00" arrival="104.00" arrivalLane="gneE107_0" arrivalPos="85.60" arrivalSpeed="10.27" duration="61.00" routeLength="559.02" waitingTime="0.00" waitingCount="0" stopTime="0.00" timeLoss="16.89" rerouteNo="1" devices="tripinfo_43 routing_43" vType="DEFAULT_VEHTYPE" speedFactor="0.92" vaporized=""/>
    <tripinfo id="71" depart="71.00" departLane="-gneE370_0" departPos="5.10" departSpeed="0.00" departDelay="0.00" arrival="107.00" arrivalLane="gneE481_0" arrivalPos="85.60" arrivalSpeed="11.70" duration="36.00" routeLength="280.29" waitingTime="0.00" waitingCount="0" stopTime="0.00" timeLoss="7.99" rerouteNo="1" devices="tripinfo_71 routing_71" vType="DEFAULT_VEHTYPE" speedFactor="0.85" vaporized=""/>
    <tripinfo id="13" depart="13.00" departLane="-gneE193_0" departPos="5.10" departSpeed="0.00" departDelay="0.00" arrival="108.00" arrivalLane="-gneE198_0" arrivalPos="85.60" arrivalSpeed="10.53" duration="95.00" routeLength="959.02" waitingTime="0.00" waitingCount="0" stopTime="0.00" timeLoss="25.94" rerouteNo="1" devices="tripinfo_13 routing_13" vType="DEFAULT_VEHTYPE" speedFactor="1.06" vaporized=""/>
    <tripinfo id="driver_47" depart="100.00" departLane="gneE418_0" departPos="24.37" departSpeed="0.00" departDelay="0.00" arrival="109.00" arrivalLane="gneE418_0" arrivalPos="85.56" arrivalSpeed="8.15" duration="9.00" routeLength="61.18" waitingTime="0.00" waitingCount="0" stopTime="0.00" timeLoss="3.37" rerouteNo="9" devices="tripinfo_driver_47 taxi_driver_47" vType="driver" speedFactor="0.94" vaporized="traci">
        <taxi customers="0" occupiedDistance="0.00" occupiedTime="0.00"/>
    </tripinfo>
    <tripinfo id="27" depart="27.00" departLane="gneE250_0" departPos="5.10" departSpeed="0.00" departDelay="0.00" arrival="110.00" arrivalLane="gneE21_0" arrivalPos="85.60" arrivalSpeed="12.36" duration="83.00" routeLength="780.08" waitingTime="5.00" waitingCount="1" stopTime="0.00" timeLoss="18.24" rerouteNo="1" devices="tripinfo_27 routing_27" vType="DEFAULT_VEHTYPE" speedFactor="0.90" vaporized=""/>
    <tripinfo id="driver_45" depart="94.00" departLane="-gneE32_0" departPos="26.53" departSpeed="0.00" departDelay="0.00" arrival="110.00" arrivalLane="gneE140_0" arrivalPos="38.76" arrivalSpeed="9.79" duration="16.00" routeLength="106.87" waitingTime="0.00" waitingCount="0" stopTime="0.00" timeLoss="3.48" rerouteNo="18" devices="tripinfo_driver_45 taxi_driver_45" vType="driver" speedFactor="0.98" vaporized="traci">
        <taxi customers="0" occupiedDistance="0.00" occupiedTime="0.00"/>
    </tripinfo>
    <tripinfo id="55" depart="55.00" departLane="gneE485_0" departPos="5.10" departSpeed="0.00" departDelay="0.00" arrival="111.00" arrivalLane="-gneE369_0" arrivalPos="85.60" arrivalSpeed="16.22" duration="56.00" routeLength="569.55" waitingTime="0.00" waitingCount="0" stopTime="0.00" timeLoss="14.08" rerouteNo="1" devices="tripinfo_55 routing_55" vType="DEFAULT_VEHTYPE" speedFactor="0.91" vaporized=""/>
    <tripinfo id="driver_41" depart="91.00" departLane="gneE8_0" departPos="1.00" departSpeed="0.00" departDelay="0.00" arrival="111.00" arrivalLane="-gneE129_0" arrivalPos="63.82" arrivalSpeed="8.52" duration="20.00" routeLength="162.62" waitingTime="0.00" waitingCount="0" stopTime="0.00" timeLoss="5.88" rerouteNo="23" devices="tripinfo_driver_41 taxi_driver_41" vType="driver" speedFactor="1.01" vaporized="traci">
        <taxi customers="0" occupiedDistance="0.00" occupiedTime="0.00"/>
    </tripinfo>
    <tripinfo id="driver_53" depart="106.00" departLane="gneE484_0" departPos="66.28" departSpeed="0.00" departDelay="0.00" arrival="111.00" arrivalLane="gneE484_0" arrivalPos="84.33" arrivalSpeed="7.46" duration="5.00" routeLength="18.04" waitingTime="0.00" waitingCount="0" stopTime="0.00" timeLoss="2.91" rerouteNo="5" devices="tripinfo_driver_53 taxi_driver_53" vType="driver" speedFactor="1.04" vaporized="traci">
        <taxi customers="0" occupiedDistance="0.00" occupiedTime="0.00"/>
    </tripinfo>
    <tripinfo id="18" depart="18.00" departLane="gneE437_0" departPos="5.10" departSpeed="0.00" departDelay="0.00" arrival="112.00" arrivalLane="gneE22_0" arrivalPos="85.60" arrivalSpeed="17.01" duration="94.00" routeLength="1069.55" waitingTime="0.00" waitingCount="0" stopTime="0.00" timeLoss="32.46" rerouteNo="1" devices="tripinfo_18 routing_18" vType="DEFAULT_VEHTYPE" speedFactor="1.09" vaporized=""/>
    <tripinfo id="driver_46" depart="97.00" departLane="gneE410_0" departPos="1.14" departSpeed="0.00" departDelay="0.00" arrival="114.00" arrivalLane="gneE485_0" arrivalPos="0.15" arrivalSpeed="4.50" duration="17.00" routeLength="93.64" waitingTime="1.00" waitingCount="1" stopTime="0.00" timeLoss="10.53" rerouteNo="19" devices="tripinfo_driver_46 taxi_driver_46" vType="driver" speedFactor="1.03" vaporized="traci">
        <taxi customers="0" occupiedDistance="0.00" occupiedTime="0.00"/>
    </tripinfo>
    <tripinfo id="31" depart="31.00" departLane="gneE157_0" departPos="5.10" departSpeed="0.00" departDelay="0.00" arrival="115.00" arrivalLane="gneE288_0" arrivalPos="85.60" arrivalSpeed="8.72" duration="84.00" routeLength="775.13" waitingTime="0.00" waitingCount="0" stopTime="0.00" timeLoss="17.40" rerouteNo="1" devices="tripinfo_31 routing_31" vType="DEFAULT_VEHTYPE" speedFactor="1.00" vaporized=""/>
    <tripinfo id="driver_35" depart="76.00" departLane="-gneE255_0" departPos="16.72" departSpeed="0.00" departDelay="0.00" arrival="116.00" arrivalLane="gneE244_0" arrivalPos="9.66" arrivalSpeed="9.55" duration="40.00" routeLength="382.20" waitingTime="0.00" waitingCount="0" stopTime="0.00" timeLoss="10.02" rerouteNo="48" devices="tripinfo_driver_35 taxi_driver_35" vType="driver" speedFactor="0.96" vaporized="traci">
        <taxi customers="0" occupiedDistance="0.00" occupiedTime="0.00"/>
    </tripinfo>
    <tripinfo id="driver_51" depart="103.00" departLane="-gneE142_0" departPos="13.15" departSpeed="0.00" departDelay="0.00" arrival="116.00" arrivalLane="gneE52_0" arrivalPos="3.44" arrivalSpeed="7.03" duration="13.00" routeLength="90.08" waitingTime="0.00" waitingCount="0" stopTime="0.00" timeLoss="4.02" rerouteNo="15" devices="tripinfo_driver_51 taxi_driver_51" vType="driver" speedFactor="1.03" vaporized="traci">
        <taxi customers="0" occupiedDistance="0.00" occupiedTime="0.00"/>
    </tripinfo>
    <personinfo id="customer_24" depart="89.00" type="DEFAULT_PEDTYPE">
        <ride waitingTime="27.00" vehicle="NULL" depart="-1" arrival="116.00" arrivalPos="85.60" duration="116.00" routeLength="-1.00" timeLoss="-0.00"/>
        <stop duration="0.00" arrival="116.00" arrivalPos="72.00" actType="last stage removed"/>
    </personinfo>
    <tripinfo id="49" depart="49.00" departLane="gneE69_0" departPos="5.10" departSpeed="0.00" departDelay="0.00" arrival="117.00" arrivalLane="gneE47_0" arrivalPos="85.60" arrivalSpeed="9.10" duration="68.00" routeLength="669.34" waitingTime="0.00" waitingCount="0" stopTime="0.00" timeLoss="15.78" rerouteNo="1" devices="tripinfo_49 routing_49" vType="DEFAULT_VEHTYPE" speedFactor="1.06" vaporized=""/>