<?xml version="1.0" encoding="UTF-8"?>

<!-- generated on 2022-07-06 13:02:07 by Eclipse SUMO sumo Version 1.12.0
<configuration xmlns:xsi="http://www.w3.org/2001/XMLSchema-instance" xsi:noNamespaceSchemaLocation="http://sumo.dlr.de/xsd/sumoConfiguration.xsd">

    <input>
        <net-file value="net_config/san-francisco.net.xml"/>
        <route-files value="net_config/sf_random_trips.trips.xml"/>
        <additional-files value="net_config/add.add.xml"/>
    </input>

    <output>
        <tripinfo-output value="net_config/tripinfo.xml"/>
    </output>

    <time>
        <step-length value="1"/>
    </time>

    <processing>
        <time-to-teleport value="0"/>
    </processing>

    <taxi_device>
        <device.taxi.dispatch-algorithm value="traci"/>
        <device.taxi.idle-algorithm value="randomCircling"/>
    </taxi_device>

    <traci_server>
        <remote-port value="63783"/>
    </traci_server>

    <gui_only>
        <gui-settings-file value="net_config/gui-settings.cfg"/>
        <tracker-interval value="1"/>
    </gui_only>

</configuration>
-->

<tripinfos xmlns:xsi="http://www.w3.org/2001/XMLSchema-instance" xsi:noNamespaceSchemaLocation="http://sumo.dlr.de/xsd/tripinfo_file.xsd">
    <tripinfo id="driver_9" depart="10.00" departLane="-27054184#1_0" departPos="5.10" departSpeed="0.00" departDelay="0.00" arrival="66.00" arrivalLane="-27570786#1_0" arrivalPos="130.55" arrivalSpeed="11.27" duration="56.00" routeLength="265.70" waitingTime="22.00" waitingCount="1" stopTime="0.00" timeLoss="32.08" rerouteNo="0" devices="tripinfo_driver_9" vType="DEFAULT_VEHTYPE" speedFactor="0.88" vaporized=""/>
    <tripinfo id="driver_8" depart="6.00" departLane="-945294692#0_0" departPos="5.10" departSpeed="0.00" departDelay="0.00" arrival="83.00" arrivalLane="-11315152_0" arrivalPos="221.37" arrivalSpeed="14.10" duration="77.00" routeLength="1077.57" waitingTime="0.00" waitingCount="0" stopTime="0.00" timeLoss="13.32" rerouteNo="0" devices="tripinfo_driver_8" vType="DEFAULT_VEHTYPE" speedFactor="1.05" vaporized=""/>
    <tripinfo id="driver_3" depart="3.00" departLane="8917818_0" departPos="5.10" departSpeed="0.00" departDelay="0.00" arrival="91.00" arrivalLane="-417247361_1" arrivalPos="3.67" arrivalSpeed="23.36" duration="88.00" routeLength="1094.66" waitingTime="0.00" waitingCount="0" stopTime="0.00" timeLoss="21.10" rerouteNo="0" devices="tripinfo_driver_3" vType="DEFAULT_VEHTYPE" speedFactor="1.08" vaporized=""/>
    <tripinfo id="driver_108" depart="44.00" departLane="-120257661#1_0" departPos="5.10" departSpeed="0.00" departDelay="0.00" arrival="93.00" arrivalLane="-8916525_0" arrivalPos="63.79" arrivalSpeed="14.36" duration="49.00" routeLength="651.58" waitingTime="0.00" waitingCount="0" stopTime="0.00" timeLoss="17.75" rerouteNo="0" devices="tripinfo_driver_108" vType="DEFAULT_VEHTYPE" speedFactor="1.10" vaporized=""/>
    <tripinfo id="driver_128" depart="49.00" departLane="24670790_0" departPos="5.10" departSpeed="0.00" departDelay="0.00" arrival="94.00" arrivalLane="-675892533_0" arrivalPos="27.39" arrivalSpeed="13.68" duration="45.00" routeLength="438.38" waitingTime="0.00" waitingCount="0" stopTime="0.00" timeLoss="14.91" rerouteNo="0" devices="tripinfo_driver_128" vType="DEFAULT_VEHTYPE" speedFactor="1.14" vaporized=""/>
    <tripinfo id="driver_149" depart="53.00" departLane="-8917439_0" departPos="5.10" departSpeed="0.00" departDelay="0.00" arrival="99.00" arrivalLane="-8921288#0_0" arrivalPos="61.91" arrivalSpeed="13.55" duration="46.00" routeLength="387.10" waitingTime="0.00" waitingCount="0" stopTime="0.00" timeLoss="17.04" rerouteNo="0" devices="tripinfo_driver_149" vType="DEFAULT_VEHTYPE" speedFactor="1.04" vaporized=""/>
    <tripinfo id="driver_158" depart="55.00" departLane="-262937969#2_0" departPos="5.10" departSpeed="0.00" departDelay="0.00" arrival="100.00" arrivalLane="-262937969#5_0" arrivalPos="80.24" arrivalSpeed="18.07" duration="45.00" routeLength="528.36" waitingTime="0.00" waitingCount="0" stopTime="0.00" timeLoss="18.24" rerouteNo="0" devices="tripinfo_driver_158" vType="DEFAULT_VEHTYPE" speedFactor="0.98" vaporized=""/>
    <tripinfo id="driver_286" depart="82.00" departLane="-467979192#1_0" departPos="0.10" departSpeed="0.00" departDelay="0.00" arrival="102.00" arrivalLane="-680820468_0" arrivalPos="2.01" arrivalSpeed="24.52" duration="20.00" routeLength="171.54" waitingTime="7.00" waitingCount="1" stopTime="0.00" timeLoss="14.43" rerouteNo="0" devices="tripinfo_driver_286" vType="DEFAULT_VEHTYPE" speedFactor="1.13" vaporized=""/>
    <tripinfo id="driver_0" depart="3.00" departLane="989334074#0_0" departPos="5.10" departSpeed="0.00" departDelay="0.00" arrival="103.00" arrivalLane="254758125#1_0" arrivalPos="90.00" arrivalSpeed="8.48" duration="100.00" routeLength="467.83" waitingTime="36.00" waitingCount="2" stopTime="0.00" timeLoss="49.30" rerouteNo="0" devices="tripinfo_driver_0" vType="DEFAULT_VEHTYPE" speedFactor="1.06" vaporized=""/>
    <tripinfo id="driver_40" depart="23.00" departLane="396985506#0_0" departPos="5.10" departSpeed="0.00" departDelay="0.00" arrival="103.00" arrivalLane="85562541#1_2" arrivalPos="130.10" arrivalSpeed="13.19" duration="80.00" routeLength="667.13" waitingTime="15.00" waitingCount="1" stopTime="0.00" timeLoss="27.86" rerouteNo="0" devices="tripinfo_driver_40" vType="DEFAULT_VEHTYPE" speedFactor="1.02" vaporized=""/>
    <tripinfo id="driver_100" depart="42.00" departLane="-8920182_0" departPos="5.10" departSpeed="0.00" departDelay="0.00" arrival="105.00" arrivalLane="-158468722_0" arrivalPos="249.22" arrivalSpeed="11.56" duration="63.00" routeLength="641.85" waitingTime="0.00" waitingCount="0" stopTime="0.00" timeLoss="8.81" rerouteNo="0" devices="tripinfo_driver_100" vType="DEFAULT_VEHTYPE" speedFactor="0.87" vaporized=""/>
    <tripinfo id="driver_222" depart="68.00" departLane="-8921530#2_0" departPos="5.10" departSpeed="0.00" departDelay="0.00" arrival="105.00" arrivalLane="-945294691#0_0" arrivalPos="123.05" arrivalSpeed="13.64" duration="37.00" routeLength="385.59" waitingTime="0.00" waitingCount="0" stopTime="0.00" timeLoss="7.49" rerouteNo="0" devices="tripinfo_driver_222" vType="DEFAULT_VEHTYPE" speedFactor="1.01" vaporized=""/>
    <tripinfo id="driver_34" depart="20.00" departLane="-222628841#2_0" departPos="5.10" departSpeed="0.00" departDelay="0.00" arrival="111.00" arrivalLane="-8917571#2_0" arrivalPos="166.98" arrivalSpeed="13.90" duration="91.00" routeLength="882.25" waitingTime="0.00" waitingCount="0" stopTime="0.00" timeLoss="13.92" rerouteNo="0" devices="tripinfo_driver_34" vType="DEFAULT_VEHTYPE" speedFactor="1.02" vaporized=""/>
    <tripinfo id="driver_88" depart="39.00" departLane="-1055870063_0" departPos="5.10" departSpeed="0.00" departDelay="0.00" arrival="112.00" arrivalLane="-36332873_0" arrivalPos="189.49" arrivalSpeed="11.63" duration="73.00" routeLength="860.54" waitingTime="0.00" waitingCount="0" stopTime="0.00" timeLoss="11.50" rerouteNo="0" devices="tripinfo_driver_88" vType="DEFAULT_VEHTYPE" speedFactor="1.06" vaporized=""/>
    <tripinfo id="driver_176" depart="58.00" departLane="-513879523_0" departPos="5.10" departSpeed="0.00" departDelay="0.00" arrival="116.00" arrivalLane="-255330059_0" arrivalPos="260.44" arrivalSpeed="10.51" duration="58.00" routeLength="583.66" waitingTime="0.00" waitingCount="0" stopTime="0.00" timeLoss="6.22" rerouteNo="0" devices="tripinfo_driver_176" vType="DEFAULT_VEHTYPE" speedFactor="1.02" vaporized=""/>
    <tripinfo id="driver_137" depart="51.00" departLane="-254758137#8_0" departPos="5.10" departSpeed="0.00" departDelay="0.00" arrival="117.00" arrivalLane="-254758137#2_0" arrivalPos="0.20" arrivalSpeed="12.15" duration="66.00" routeLength="781.54" waitingTime="0.00" waitingCount="0" stopTime="0.00" timeLoss="7.18" rerouteNo="0" devices="tripinfo_driver_137" vType="DEFAULT_VEHTYPE" speedFactor="0.96" vaporized=""/>
    <tripinfo id="driver_97" depart="41.00" departLane="-8917790#0_0" departPos="5.10" departSpeed="0.00" departDelay="0.00" arrival="122.00" arrivalLane="-8921339#0_0" arrivalPos="99.56" arrivalSpeed="12.00" duration="81.00" routeLength="848.25" waitingTime="0.00" waitingCount="0" stopTime="0.00" timeLoss="19.23" rerouteNo="0" devices="tripinfo_driver_97" vType="DEFAULT_VEHTYPE" speedFactor="0.93" vaporized=""/>
    <tripinfo id="driver_307" depart="87.00" departLane="-563092565#2_0" departPos="5.10" departSpeed="0.00" departDelay="0.00" arrival="122.00" arrivalLane="-26938418#2_0" arrivalPos="0.19" arrivalSpeed="3.64" duration="35.00" routeLength="444.72" waitingTime="0.00" waitingCount="0" stopTime="0.00" timeLoss="11.75" rerouteNo="0" devices="tripinfo_driver_307" vType="DEFAULT_VEHTYPE" speedFactor="1.06" vaporized=""/>
    <tripinfo id="driver_205" depart="65.00" departLane="-143612439#1_0" departPos="5.10" departSpeed="0.00" departDelay="0.00" arrival="130.00" arrivalLane="-120257661#1_0" arrivalPos="103.44" arrivalSpeed="22.72" duration="65.00" routeLength="786.61" waitingTime="0.00" waitingCount="0" stopTime="0.00" timeLoss="16.62" rerouteNo="0" devices="tripinfo_driver_205" vType="DEFAULT_VEHTYPE" speedFactor="1.19" vaporized=""/>
    <tripinfo id="driver_113" depart="45.00" departLane="-224316525#1_0" departPos="5.10" departSpeed="0.00" departDelay="0.00" arrival="131.00" arrivalLane="30831533#4_0" arrivalPos="104.08" arrivalSpeed="18.45" duration="86.00" routeLength="1311.75" waitingTime="0.00" waitingCount="0" stopTime="0.00" timeLoss="14.48" rerouteNo="0" devices="tripinfo_driver_113" vType="DEFAULT_VEHTYPE" speedFactor="0.91" vaporized=""/>
    <tripinfo id="driver_210" depart="66.00" departLane="-8916367#0_0" departPos="5.10" departSpeed="0.00" departDelay="0.00" arrival="131.00" arrivalLane="-8920021#2_0" arrivalPos="0.20" arrivalSpeed="6.18" duration="65.00" routeLength="813.20" waitingTime="0.00" waitingCount="0" stopTime="0.00" timeLoss="12.75" rerouteNo="0" devices="tripinfo_driver_210" vType="DEFAULT_VEHTYPE" speedFactor="1.03" vaporized=""/>
    <tripinfo id="driver_17" depart="14.00" departLane="-1020512096#1_0" departPos="5.10" departSpeed="0.00" departDelay="0.00" arrival="135.00" arrivalLane="-8917406#0_0" arrivalPos="2.42" arrivalSpeed="13.80" duration="121.00" routeLength="1621.32" waitingTime="3.00" waitingCount="1" stopTime="0.00" timeLoss="29.08" rerouteNo="0" devices="tripinfo_driver_17" vType="DEFAULT_VEHTYPE" speedFactor="1.01" vaporized=""/>
    <tripinfo id="driver_31" depart="19.00" departLane="-399215884#0_0" departPos="5.10" departSpeed="0.00" departDelay="0.00" arrival="137.00" arrivalLane="24245395#0_0" arrivalPos="0.55" arrivalSpeed="5.85" duration="118.00" routeLength="827.55" waitingTime="40.00" waitingCount="2" stopTime="0.00" timeLoss="67.39" rerouteNo="0" devices="tripinfo_driver_31" vType="DEFAULT_VEHTYPE" speedFactor="1.08" vaporized=""/>
    <tripinfo id="driver_45" depart="25.00" departLane="87297164#9_0" departPos="0.52" departSpeed="0.00" departDelay="0.00" arrival="137.00" arrivalLane="-35977367#8_0" arrivalPos="0.20" arrivalSpeed="4.97" duration="112.00" routeLength="626.40" waitingTime="49.00" waitingCount="2" stopTime="0.00" timeLoss="70.11" rerouteNo="0" devices="tripinfo_driver_45" vType="DEFAULT_VEHTYPE" speedFactor="0.89" vaporized=""/>
    <tripinfo id="driver_280" depart="80.00" departLane="-283532251_0" departPos="2.92" departSpeed="0.00" departDelay="0.00" arrival="138.00" arrivalLane="-286299595#0_0" arrivalPos="187.68" arrivalSpeed="12.70" duration="58.00" routeLength="695.84" waitingTime="0.00" waitingCount="0" stopTime="0.00" timeLoss="11.38" rerouteNo="0" devices="tripinfo_driver_280" vType="DEFAULT_VEHTYPE" speedFactor="0.98" vaporized=""/>
    <tripinfo id="driver_234" depart="72.00" departLane="-12437582#4_0" departPos="5.10" departSpeed="0.00" departDelay="0.00" arrival="139.00" arrivalLane="-8920521#3_0" arrivalPos="90.60" arrivalSpeed="14.47" duration="67.00" routeLength="776.41" waitingTime="0.00" waitingCount="0" stopTime="0.00" timeLoss="11.64" rerouteNo="0" devices="tripinfo_driver_234" vType="DEFAULT_VEHTYPE" speedFactor="1.07" vaporized=""/>
    <tripinfo id="driver_2" depart="3.00" departLane="-8921032#0_0" departPos="5.10" departSpeed="0.00" departDelay="0.00" arrival="140.00" arrivalLane="-276338269_0" arrivalPos="697.50" arrivalSpeed="14.68" duration="137.00" routeLength="1590.94" waitingTime="0.00" waitingCount="0" stopTime="0.00" timeLoss="24.51" rerouteNo="0" devices="tripinfo_driver_2" vType="DEFAULT_VEHTYPE" speedFactor="1.01" vaporized=""/>
    <tripinfo id="driver_254" depart="75.00" departLane="-8921530#4_0" departPos="5.10" departSpeed="0.00" departDelay="0.00" arrival="140.00" arrivalLane="-466953902_0" arrivalPos="152.75" arrivalSpeed="13.76" duration="65.00" routeLength="757.52" waitingTime="0.00" waitingCount="0" stopTime="0.00" timeLoss="10.74" rerouteNo="0" devices="tripinfo_driver_254" vType="DEFAULT_VEHTYPE" speedFactor="1.04" vaporized=""/>
    <tripinfo id="driver_264" depart="77.00" departLane="-158804458#0_0" departPos="5.10" departSpeed="0.00" departDelay="0.00" arrival="141.00" arrivalLane="-87231622#8_0" arrivalPos="80.14" arrivalSpeed="13.76" duration="64.00" routeLength="653.39" waitingTime="0.00" waitingCount="0" stopTime="0.00" timeLoss="17.15" rerouteNo="0" devices="tripinfo_driver_264" vType="DEFAULT_VEHTYPE" speedFactor="1.07" vaporized=""/>
    <tripinfo id="driver_362" depart="98.00" departLane="-85644919#4_0" departPos="5.10" departSpeed="0.00" departDelay="0.00" arrival="141.00" arrivalLane="-713758731#2_0" arrivalPos="90.50" arrivalSpeed="9.43" duration="43.00" routeLength="359.40" waitingTime="0.00" waitingCount="0" stopTime="0.00" timeLoss="8.76" rerouteNo="0" devices="tripinfo_driver_362" vType="DEFAULT_VEHTYPE" speedFactor="0.86" vaporized=""/>
    <tripinfo id="driver_72" depart="34.00" departLane="215961475_0" departPos="5.10" departSpeed="0.00" departDelay="0.00" arrival="143.00" arrivalLane="-397104884#1_1" arrivalPos="0.39" arrivalSpeed="2.73" duration="109.00" routeLength="467.65" waitingTime="47.00" waitingCount="2" stopTime="0.00" timeLoss="71.51" rerouteNo="0" devices="tripinfo_driver_72" vType="DEFAULT_VEHTYPE" speedFactor="1.00" vaporized=""/>
    <tripinfo id="driver_188" depart="62.00" departLane="-254750797#0_0" departPos="5.10" departSpeed="0.00" departDelay="0.00" arrival="144.00" arrivalLane="8918605#1_0" arrivalPos="259.94" arrivalSpeed="12.42" duration="82.00" routeLength="628.64" waitingTime="18.00" waitingCount="1" stopTime="0.00" timeLoss="36.27" rerouteNo="0" devices="tripinfo_driver_188" vType="DEFAULT_VEHTYPE" speedFactor="0.95" vaporized=""/>
    <tripinfo id="driver_44" depart="24.00" departLane="-50621094#1_0" departPos="5.10" departSpeed="0.00" departDelay="0.00" arrival="146.00" arrivalLane="8920379_0" arrivalPos="163.75" arrivalSpeed="13.09" duration="122.00" routeLength="1570.25" waitingTime="2.00" waitingCount="1" stopTime="0.00" timeLoss="25.31" rerouteNo="0" devices="tripinfo_driver_44" vType="DEFAULT_VEHTYPE" speedFactor="1.01" vaporized=""/>
    <tripinfo id="driver_310" depart="87.00" departLane="678533546_0" departPos="5.10" departSpeed="0.00" departDelay="0.00" arrival="148.00" arrivalLane="-8918647#3_0" arrivalPos="31.41" arrivalSpeed="10.87" duration="61.00" routeLength="595.03" waitingTime="1.00" waitingCount="1" stopTime="0.00" timeLoss="21.20" rerouteNo="0" devices="tripinfo_driver_310" vType="DEFAULT_VEHTYPE" speedFactor="0.96" vaporized=""/>
    <tripinfo id="driver_249" depart="74.00" departLane="-8921121#3_0" departPos="5.10" departSpeed="0.00" departDelay="0.00" arrival="149.00" arrivalLane="-52721875#0_0" arrivalPos="31.46" arrivalSpeed="6.22" duration="75.00" routeLength="787.79" waitingTime="0.00" waitingCount="0" stopTime="0.00" timeLoss="16.19" rerouteNo="0" devices="tripinfo_driver_249" vType="DEFAULT_VEHTYPE" speedFactor="1.03" vaporized=""/>
    <tripinfo id="driver_129" depart="49.00" departLane="-8917792_0" departPos="5.10" departSpeed="0.00" departDelay="0.00" arrival="150.00" arrivalLane="-742390005#1_0" arrivalPos="141.51" arrivalSpeed="13.31" duration="101.00" routeLength="1134.42" waitingTime="0.00" waitingCount="0" stopTime="0.00" timeLoss="19.86" rerouteNo="0" devices="tripinfo_driver_129" vType="DEFAULT_VEHTYPE" speedFactor="0.99" vaporized=""/>
    <tripinfo id="driver_57" depart="29.00" departLane="-27050839#3_0" departPos="5.10" departSpeed="0.00" departDelay="0.00" arrival="151.00" arrivalLane="-85644919#7_0" arrivalPos="132.20" arrivalSpeed="13.92" duration="122.00" routeLength="1310.33" waitingTime="24.00" waitingCount="1" stopTime="0.00" timeLoss="50.51" rerouteNo="0" devices="tripinfo_driver_57" vType="DEFAULT_VEHTYPE" speedFactor="1.07" vaporized=""/>
    <tripinfo id="driver_87" depart="39.00" departLane="-8920510#0_0" departPos="5.10" departSpeed="0.00" departDelay="0.00" arrival="153.00" arrivalLane="-619535764_0" arrivalPos="9.73" arrivalSpeed="12.17" duration="114.00" routeLength="1983.61" waitingTime="0.00" waitingCount="0" stopTime="0.00" timeLoss="17.60" rerouteNo="0" devices="tripinfo_driver_87" vType="DEFAULT_VEHTYPE" speedFactor="1.09" vaporized=""/>
    <tripinfo id="driver_326" depart="91.00" departLane="513676833#0_0" departPos="0.20" departSpeed="0.00" departDelay="0.00" arrival="153.00" arrivalLane="425516617#0_0" arrivalPos="1.89" arrivalSpeed="7.28" duration="62.00" routeLength="200.59" waitingTime="34.00" waitingCount="1" stopTime="0.00" timeLoss="42.88" rerouteNo="0" devices="tripinfo_driver_326" vType="DEFAULT_VEHTYPE" speedFactor="0.96" vaporized=""/>
    <tripinfo id="driver_168" depart="57.00" departLane="-359903538_0" departPos="0.20" departSpeed="0.00" departDelay="0.00" arrival="158.00" arrivalLane="415553456#1_0" arrivalPos="102.68" arrivalSpeed="13.80" duration="101.00" routeLength="759.16" waitingTime="32.00" waitingCount="1" stopTime="0.00" timeLoss="47.01" rerouteNo="0" devices="tripinfo_driver_168" vType="DEFAULT_VEHTYPE" speedFactor="0.94" vaporized=""/>
    <tripinfo id="driver_716" depart="151.00" departLane="658558315_0" departPos="5.10" departSpeed="0.00" departDelay="0.00" arrival="159.00" arrivalLane="-27239381#1_0" arrivalPos="14.05" arrivalSpeed="11.97" duration="8.00" routeLength="43.27" waitingTime="0.00" waitingCount="0" stopTime="0.00" timeLoss="4.72" rerouteNo="0" devices="tripinfo_driver_716" vType="DEFAULT_VEHTYPE" speedFactor="1.03" vaporized=""/>
    <tripinfo id="driver_229" depart="71.00" departLane="677696223_0" departPos="5.10" departSpeed="0.00" departDelay="0.00" arrival="160.00" arrivalLane="-283523323#2_0" arrivalPos="65.18" arrivalSpeed="12.21" duration="89.00" routeLength="1255.45" waitingTime="6.00" waitingCount="1" stopTime="0.00" timeLoss="24.50" rerouteNo="0" devices="tripinfo_driver_229" vType="DEFAULT_VEHTYPE" speedFactor="0.96" vaporized=""/>
    <tripinfo id="driver_182" depart="60.00" departLane="8917789_0" departPos="5.10" departSpeed="0.00" departDelay="0.00" arrival="164.00" arrivalLane="431580654_0" arrivalPos="18.46" arrivalSpeed="10.71" duration="104.00" routeLength="1053.89" waitingTime="0.00" waitingCount="0" stopTime="0.00" timeLoss="26.03" rerouteNo="0" devices="tripinfo_driver_182" vType="DEFAULT_VEHTYPE" speedFactor="1.02" vaporized=""/>
    <tripinfo id="driver_437" depart="110.00" departLane="-425516654#1_0" departPos="5.10" departSpeed="0.00" departDelay="0.00" arrival="164.00" arrivalLane="-146155465#2_0" arrivalPos="127.92" arrivalSpeed="11.23" duration="54.00" routeLength="578.51" waitingTime="0.00" waitingCount="0" stopTime="0.00" timeLoss="11.31" rerouteNo="0" devices="tripinfo_driver_437" vType="DEFAULT_VEHTYPE" speedFactor="1.07" vaporized=""/>
    <tripinfo id="driver_325" depart="90.00" departLane="399575097_0" departPos="5.10" departSpeed="0.00" departDelay="0.00" arrival="169.00" arrivalLane="-24335468#0_0" arrivalPos="80.22" arrivalSpeed="10.16" duration="79.00" routeLength="821.61" waitingTime="0.00" waitingCount="0" stopTime="0.00" timeLoss="17.09" rerouteNo="0" devices="tripinfo_driver_325" vType="DEFAULT_VEHTYPE" speedFactor="0.97" vaporized=""/>
    <tripinfo id="driver_403" depart="104.00" departLane="-755098316#1_0" departPos="5.10" departSpeed="0.00" departDelay="0.00" arrival="171.00" arrivalLane="-222858919#3_0" arrivalPos="228.74" arrivalSpeed="12.81" duration="67.00" routeLength="752.80" waitingTime="0.00" waitingCount="0" stopTime="0.00" timeLoss="12.78" rerouteNo="0" devices="tripinfo_driver_403" vType="DEFAULT_VEHTYPE" speedFactor="1.00" vaporized=""/>
    <tripinfo id="driver_30" depart="18.00" departLane="8916281#6_0" departPos="5.10" departSpeed="0.00" departDelay="0.00" arrival="172.00" arrivalLane="620728103#1_0" arrivalPos="50.31" arrivalSpeed="10.92" duration="154.00" routeLength="2237.89" waitingTime="20.00" waitingCount="1" stopTime="0.00" timeLoss="53.85" rerouteNo="0" devices="tripinfo_driver_30" vType="DEFAULT_VEHTYPE" speedFactor="1.02" vaporized=""/>
    <tripinfo id="driver_11" depart="11.00" departLane="-8921180#0_0" departPos="5.10" departSpeed="0.00" departDelay="0.00" arrival="173.00" arrivalLane="-27553656_0" arrivalPos="30.86" arrivalSpeed="11.90" duration="162.00" routeLength="2224.09" waitingTime="0.00" waitingCount="0" stopTime="0.00" timeLoss="22.91" rerouteNo="0" devices="tripinfo_driver_11" vType="DEFAULT_VEHTYPE" speedFactor="0.94" vaporized=""/>
    <tripinfo id="driver_218" depart="67.00" departLane="-131937148_0" departPos="5.10" departSpeed="0.00" departDelay="0.00" arrival="174.00" arrivalLane="-11315153_0" arrivalPos="147.23" arrivalSpeed="10.34" duration="107.00" routeLength="901.92" waitingTime="0.00" waitingCount="0" stopTime="0.00" timeLoss="13.88" rerouteNo="0" devices="tripinfo_driver_218" vType="DEFAULT_VEHTYPE" speedFactor="0.80" vaporized=""/>
    <tripinfo id="driver_109" depart="44.00" departLane="-254984068#4_0" departPos="5.10" departSpeed="0.00" departDelay="0.00" arrival="176.00" arrivalLane="-44671106#2_0" arrivalPos="79.51" arrivalSpeed="22.13" duration="132.00" routeLength="1558.22" waitingTime="0.00" waitingCount="0" stopTime="0.00" timeLoss="20.45" rerouteNo="0" devices="tripinfo_driver_109" vType="DEFAULT_VEHTYPE" speedFactor="1.00" vaporized=""/>
    <tripinfo id="driver_198" depart="64.00" departLane="-677696218#0_0" departPos="5.10" departSpeed="0.00" departDelay="0.00" arrival="176.00" arrivalLane="-224384051_0" arrivalPos="70.46" arrivalSpeed="13.79" duration="112.00" routeLength="1790.52" waitingTime="0.00" waitingCount="0" stopTime="0.00" timeLoss="21.71" rerouteNo="0" devices="tripinfo_driver_198" vType="DEFAULT_VEHTYPE" speedFactor="1.08" vaporized=""/>
    <tripinfo id="driver_460" depart="113.00" departLane="-772914851_0" departPos="5.10" departSpeed="0.00" departDelay="0.00" arrival="177.00" arrivalLane="224199023#1_0" arrivalPos="123.07" arrivalSpeed="18.91" duration="64.00" routeLength="705.72" waitingTime="0.00" waitingCount="0" stopTime="0.00" timeLoss="9.30" rerouteNo="0" devices="tripinfo_driver_460" vType="DEFAULT_VEHTYPE" speedFactor="0.89" vaporized=""/>
    <tripinfo id="driver_29" depart="18.00" departLane="8918642#1_0" departPos="5.10" departSpeed="0.00" departDelay="0.00" arrival="181.00" arrivalLane="-247966218#4_1" arrivalPos="49.22" arrivalSpeed="23.06" duration="163.00" routeLength="3333.58" waitingTime="4.00" waitingCount="1" stopTime="0.00" timeLoss="38.79" rerouteNo="0" devices="tripinfo_driver_29" vType="DEFAULT_VEHTYPE" speedFactor="1.14" vaporized=""/>
    <tripinfo id="driver_78" depart="36.00" departLane="978256480_0" departPos="5.10" departSpeed="0.00" departDelay="0.00" arrival="181.00" arrivalLane="-224384038#0_0" arrivalPos="271.28" arrivalSpeed="13.22" duration="145.00" routeLength="1624.96" waitingTime="0.00" waitingCount="0" stopTime="0.00" timeLoss="23.11" rerouteNo="0" devices="tripinfo_driver_78" vType="DEFAULT_VEHTYPE" speedFactor="0.99" vaporized=""/>
    <tripinfo id="driver_153" depart="54.00" departLane="945294684_0" departPos="5.10" departSpeed="0.00" departDelay="0.00" arrival="181.00" arrivalLane="-399883466_0" arrivalPos="311.57" arrivalSpeed="14.19" duration="127.00" routeLength="1803.37" waitingTime="0.00" waitingCount="0" stopTime="0.00" timeLoss="25.23" rerouteNo="0" devices="tripinfo_driver_153" vType="DEFAULT_VEHTYPE" speedFactor="1.09" vaporized=""/>
    <tripinfo id="driver_256" depart="76.00" departLane="8915078_0" departPos="5.10" departSpeed="0.00" departDelay="0.00" arrival="181.00" arrivalLane="-224384049_0" arrivalPos="70.58" arrivalSpeed="15.31" duration="105.00" routeLength="1249.45" waitingTime="0.00" waitingCount="0" stopTime="0.00" timeLoss="28.74" rerouteNo="0" devices="tripinfo_driver_256" vType="DEFAULT_VEHTYPE" speedFactor="1.11" vaporized=""/>
    <tripinfo id="driver_491" depart="118.00" departLane="-814617628_0" departPos="5.10" departSpeed="0.00" departDelay="0.00" arrival="181.00" arrivalLane="24547813#3_0" arrivalPos="58.21" arrivalSpeed="10.59" duration="63.00" routeLength="594.44" waitingTime="0.00" waitingCount="0" stopTime="0.00" timeLoss="10.96" rerouteNo="0" devices="tripinfo_driver_491" vType="DEFAULT_VEHTYPE" speedFactor="0.85" vaporized=""/>
    <tripinfo id="driver_150" depart="54.00" departLane="-28738271#1_0" departPos="5.10" departSpeed="0.00" departDelay="0.00" arrival="184.00" arrivalLane="-254758127#1_0" arrivalPos="41.00" arrivalSpeed="12.03" duration="130.00" routeLength="939.51" waitingTime="36.00" waitingCount="1" stopTime="0.00" timeLoss="62.26" rerouteNo="0" devices="tripinfo_driver_150" vType="DEFAULT_VEHTYPE" speedFactor="0.89" vaporized=""/>
    <tripinfo id="driver_177" depart="59.00" departLane="-397146715#2_0" departPos="0.20" departSpeed="0.00" departDelay="0.00" arrival="185.00" arrivalLane="-212214144#1_0" arrivalPos="84.92" arrivalSpeed="9.69" duration="126.00" routeLength="1549.70" waitingTime="18.00" waitingCount="1" stopTime="0.00" timeLoss="47.80" rerouteNo="0" devices="tripinfo_driver_177" vType="DEFAULT_VEHTYPE" speedFactor="0.96" vaporized=""/>
    <tripinfo id="driver_281" depart="80.00" departLane="-396956434#3_0" departPos="5.10" departSpeed="0.00" departDelay="0.00" arrival="185.00" arrivalLane="-133856218#4_0" arrivalPos="80.00" arrivalSpeed="12.27" duration="105.00" routeLength="1883.81" waitingTime="0.00" waitingCount="0" stopTime="0.00" timeLoss="22.46" rerouteNo="0" devices="tripinfo_driver_281" vType="DEFAULT_VEHTYPE" speedFactor="1.17" vaporized=""/>
    <tripinfo id="driver_339" depart="93.00" departLane="-8920409_0" departPos="5.10" departSpeed="0.00" departDelay="0.00" arrival="185.00" arrivalLane="-8921331#1_0" arrivalPos="191.59" arrivalSpeed="21.13" duration="92.00" routeLength="1159.07" waitingTime="0.00" waitingCount="0" stopTime="0.00" timeLoss="25.58" rerouteNo="0" devices="tripinfo_driver_339" vType="DEFAULT_VEHTYPE" speedFactor="0.99" vaporized=""/>
    <tripinfo id="driver_13" depart="12.00" departLane="-120257661#1_0" departPos="5.10" departSpeed="0.00" departDelay="0.00" arrival="186.00" arrivalLane="514689787_1" arrivalPos="16.35" arrivalSpeed="9.40" duration="174.00" routeLength="1655.66" waitingTime="48.00" waitingCount="2" stopTime="0.00" timeLoss="85.46" rerouteNo="0" devices="tripinfo_driver_13" vType="DEFAULT_VEHTYPE" speedFactor="0.89" vaporized=""/>
    <tripinfo id="driver_36" depart="22.00" departLane="-27028615#4_0" departPos="5.10" departSpeed="0.00" departDelay="0.00" arrival="186.00" arrivalLane="-45570798_0" arrivalPos="154.39" arrivalSpeed="12.94" duration="164.00" routeLength="1869.52" waitingTime="0.00" waitingCount="0" stopTime="0.00" timeLoss="29.07" rerouteNo="0" devices="tripinfo_driver_36" vType="DEFAULT_VEHTYPE" speedFactor="0.96" vaporized=""/>
    <tripinfo id="driver_239" depart="72.00" departLane="8921527#1_0" departPos="5.10" departSpeed="0.00" departDelay="0.00" arrival="188.00" arrivalLane="-680243313_0" arrivalPos="77.10" arrivalSpeed="8.75" duration="116.00" routeLength="1069.34" waitingTime="0.00" waitingCount="0" stopTime="0.00" timeLoss="14.37" rerouteNo="0" devices="tripinfo_driver_239" vType="DEFAULT_VEHTYPE" speedFactor="0.80" vaporized=""/>
    <tripinfo id="driver_345" depart="95.00" departLane="-655718937#4_0" departPos="1.39" departSpeed="0.00" departDelay="0.00" arrival="188.00" arrivalLane="-224941796#1_0" arrivalPos="86.40" arrivalSpeed="11.31" duration="93.00" routeLength="745.46" waitingTime="11.00" waitingCount="1" stopTime="0.00" timeLoss="30.56" rerouteNo="0" devices="tripinfo_driver_345" vType="DEFAULT_VEHTYPE" speedFactor="0.90" vaporized=""/>
    <tripinfo id="driver_480" depart="116.00" departLane="-688508136#0_0" departPos="5.10" departSpeed="0.00" departDelay="0.00" arrival="189.00" arrivalLane="-739662900_0" arrivalPos="32.74" arrivalSpeed="12.42" duration="73.00" routeLength="870.59" waitingTime="0.00" waitingCount="0" stopTime="0.00" timeLoss="18.44" rerouteNo="0" devices="tripinfo_driver_480" vType="DEFAULT_VEHTYPE" speedFactor="0.98" vaporized=""/>
    <tripinfo id="driver_42" depart="23.00" departLane="8917792_0" departPos="5.10" departSpeed="0.00" departDelay="0.00" arrival="190.00" arrivalLane="-255330059_0" arrivalPos="260.44" arrivalSpeed="10.91" duration="167.00" routeLength="2342.09" waitingTime="0.00" waitingCount="0" stopTime="0.00" timeLoss="18.19" rerouteNo="0" devices="tripinfo_driver_42" vType="DEFAULT_VEHTYPE" speedFactor="1.00" vaporized=""/>
    <tripinfo id="driver_120" depart="47.00" departLane="-1067214503_0" departPos="5.10" departSpeed="0.00" departDelay="0.00" arrival="191.00" arrivalLane="-8917611_0" arrivalPos="451.29" arrivalSpeed="14.10" duration="144.00" routeLength="1911.64" waitingTime="0.00" waitingCount="0" stopTime="0.00" timeLoss="19.93" rerouteNo="0" devices="tripinfo_driver_120" vType="DEFAULT_VEHTYPE" speedFactor="1.14" vaporized=""/>