<?xml version="1.0" encoding="UTF-8"?>

<!-- generated on 2022-09-01 13:43:43 by Eclipse SUMO sumo Version 1.14.1
<configuration xmlns:xsi="http://www.w3.org/2001/XMLSchema-instance" xsi:noNamespaceSchemaLocation="http://sumo.dlr.de/xsd/sumoConfiguration.xsd">

    <input>
        <net-file value="net_config/san-francisco.net.xml"/>
        <additional-files value="net_config/add.add.xml"/>
    </input>

    <output>
        <tripinfo-output value="net_config/tripinfo.xml"/>
    </output>

    <time>
        <step-length value="1"/>
    </time>

    <processing>
        <time-to-teleport value="0"/>
    </processing>

    <traci_server>
        <remote-port value="61593"/>
    </traci_server>

    <gui_only>
        <gui-settings-file value="net_config/gui-settings.cfg"/>
    </gui_only>

</configuration>
-->

<tripinfos xmlns:xsi="http://www.w3.org/2001/XMLSchema-instance" xsi:noNamespaceSchemaLocation="http://sumo.dlr.de/xsd/tripinfo_file.xsd">
    <tripinfo id="driver_0" depart="1.00" departLane="30030100#2_0" departPos="5.10" departSpeed="0.00" departDelay="0.00" arrival="7.00" arrivalLane="30030100#2_1" arrivalPos="34.03" arrivalSpeed="9.16" duration="6.00" routeLength="28.93" waitingTime="0.00" waitingCount="0" stopTime="0.00" timeLoss="2.56" rerouteNo="0" devices="tripinfo_driver_0" vType="DEFAULT_VEHTYPE" speedFactor="1.06" vaporized="traci"/>
    <tripinfo id="driver_41" depart="8.00" departLane="133733593#0_0" departPos="0.20" departSpeed="0.00" departDelay="1.00" arrival="9.00" arrivalLane="133733593#0_0" arrivalPos="0.20" arrivalSpeed="0.00" duration="1.00" routeLength="0.00" waitingTime="0.00" waitingCount="0" stopTime="0.00" timeLoss="0.00" rerouteNo="0" devices="tripinfo_driver_41" vType="DEFAULT_VEHTYPE" speedFactor="0.96" vaporized="traci"/>
    <tripinfo id="driver_48" depart="10.00" departLane="425516638#0_0" departPos="0.20" departSpeed="0.00" departDelay="1.00" arrival="11.00" arrivalLane="425516638#0_0" arrivalPos="0.20" arrivalSpeed="0.00" duration="1.00" routeLength="0.00" waitingTime="0.00" waitingCount="0" stopTime="0.00" timeLoss="0.00" rerouteNo="0" devices="tripinfo_driver_48" vType="DEFAULT_VEHTYPE" speedFactor="0.85" vaporized="traci"/>
    <tripinfo id="driver_38" depart="7.00" departLane="-254396709#2_0" departPos="0.20" departSpeed="0.00" departDelay="0.00" arrival="23.00" arrivalLane="-254396709#0_0" arrivalPos="0.94" arrivalSpeed="0.06" duration="16.00" routeLength="131.46" waitingTime="2.00" waitingCount="1" stopTime="0.00" timeLoss="9.63" rerouteNo="0" devices="tripinfo_driver_38" vType="DEFAULT_VEHTYPE" speedFactor="1.10" vaporized="traci"/>
    <tripinfo id="driver_14" depart="3.00" departLane="-8917406#2_0" departPos="5.10" departSpeed="0.00" departDelay="0.00" arrival="29.00" arrivalLane=":65327192_12_0" arrivalPos="3.10" arrivalSpeed="6.35" duration="26.00" routeLength="219.73" waitingTime="0.00" waitingCount="0" stopTime="0.00" timeLoss="6.46" rerouteNo="0" devices="tripinfo_driver_14" vType="DEFAULT_VEHTYPE" speedFactor="0.99" vaporized="traci"/>
    <tripinfo id="driver_20" depart="3.00" departLane="-225806043#1_0" departPos="5.10" departSpeed="0.00" departDelay="0.00" arrival="32.00" arrivalLane="-365816000#1_0" arrivalPos="0.20" arrivalSpeed="3.08" duration="29.00" routeLength="282.26" waitingTime="0.00" waitingCount="0" stopTime="0.00" timeLoss="13.71" rerouteNo="0" devices="tripinfo_driver_20" vType="DEFAULT_VEHTYPE" speedFactor="1.02" vaporized=""/>
    <tripinfo id="driver_37" depart="7.00" departLane="425516638#0_0" departPos="0.20" departSpeed="0.00" departDelay="0.00" arrival="34.00" arrivalLane="734004334#0_0" arrivalPos="2.73" arrivalSpeed="7.03" duration="27.00" routeLength="241.79" waitingTime="0.00" waitingCount="0" stopTime="0.00" timeLoss="10.45" rerouteNo="1" devices="tripinfo_driver_37" vType="DEFAULT_VEHTYPE" speedFactor="1.18" vaporized="traci"/>
    <tripinfo id="driver_16" depart="3.00" departLane="28805059#2_0" departPos="5.10" departSpeed="0.00" departDelay="0.00" arrival="41.00" arrivalLane="1020512097#1_0" arrivalPos="0.89" arrivalSpeed="0.00" duration="38.00" routeLength="273.96" waitingTime="4.00" waitingCount="1" stopTime="0.00" timeLoss="12.74" rerouteNo="0" devices="tripinfo_driver_16" vType="DEFAULT_VEHTYPE" speedFactor="0.88" vaporized="traci"/>
    <tripinfo id="driver_42" depart="7.00" departLane="742976231_0" departPos="5.10" departSpeed="0.00" departDelay="0.00" arrival="44.00" arrivalLane="254448250_0" arrivalPos="86.06" arrivalSpeed="0.00" duration="37.00" routeLength="222.06" waitingTime="7.00" waitingCount="1" stopTime="0.00" timeLoss="12.84" rerouteNo="0" devices="tripinfo_driver_42" vType="DEFAULT_VEHTYPE" speedFactor="1.09" vaporized="traci"/>
    <personinfo id="customer_7" depart="44.00" type="DEFAULT_PEDTYPE">
        <stop duration="1.00" arrival="45.00" arrivalPos="20.63" actType="waiting"/>
    </personinfo>
    <tripinfo id="driver_15" depart="3.00" departLane="-425516678#10_0" departPos="5.10" departSpeed="0.00" departDelay="0.00" arrival="45.00" arrivalLane=":65317141_12_0" arrivalPos="3.22" arrivalSpeed="5.69" duration="42.00" routeLength="374.84" waitingTime="0.00" waitingCount="0" stopTime="0.00" timeLoss="9.85" rerouteNo="0" devices="tripinfo_driver_15" vType="DEFAULT_VEHTYPE" speedFactor="0.93" vaporized="traci"/>
    <tripinfo id="driver_17" depart="3.00" departLane="-133376113#2_0" departPos="0.20" departSpeed="0.00" departDelay="0.00" arrival="48.00" arrivalLane="30029172#5_0" arrivalPos="10.61" arrivalSpeed="10.36" duration="45.00" routeLength="403.49" waitingTime="0.00" waitingCount="0" stopTime="0.00" timeLoss="11.57" rerouteNo="0" devices="tripinfo_driver_17" vType="DEFAULT_VEHTYPE" speedFactor="0.94" vaporized="traci"/>
    <tripinfo id="driver_63" depart="11.00" departLane="-254971069#2_0" departPos="0.20" departSpeed="0.00" departDelay="0.00" arrival="50.00" arrivalLane="-254396709#2_0" arrivalPos="0.20" arrivalSpeed="5.66" duration="39.00" routeLength="429.27" waitingTime="0.00" waitingCount="0" stopTime="0.00" timeLoss="16.67" rerouteNo="0" devices="tripinfo_driver_63" vType="DEFAULT_VEHTYPE" speedFactor="0.94" vaporized=""/>
    <tripinfo id="driver_46" depart="8.00" departLane="1041357578#1_0" departPos="1.45" departSpeed="0.00" departDelay="0.00" arrival="51.00" arrivalLane="-254756526#2_0" arrivalPos="0.20" arrivalSpeed="1.46" duration="43.00" routeLength="7.89" waitingTime="36.00" waitingCount="1" stopTime="2.00" timeLoss="39.60" rerouteNo="1" devices="tripinfo_driver_46 person_driver_46" vType="DEFAULT_VEHTYPE" speedFactor="0.90" vaporized=""/>
    <personinfo id="customer_0" depart="8.00" type="DEFAULT_PEDTYPE">
        <stop duration="40.00" arrival="48.00" arrivalPos="0.00" actType="waiting"/>
        <ride waitingTime="3.00" vehicle="driver_46" depart="51.00" arrival="51.00" arrivalPos="0.20" duration="0.00" routeLength="0.09" timeLoss="0.93"/>
        <stop duration="1.00" arrival="52.00" arrivalPos="45.36" actType="waiting"/>
    </personinfo>
    <tripinfo id="driver_1" depart="1.00" departLane="425516648_0" departPos="5.10" departSpeed="0.00" departDelay="0.00" arrival="52.00" arrivalLane="425516649#0_0" arrivalPos="6.12" arrivalSpeed="15.22" duration="51.00" routeLength="503.20" waitingTime="1.00" waitingCount="1" stopTime="0.00" timeLoss="25.56" rerouteNo="0" devices="tripinfo_driver_1" vType="DEFAULT_VEHTYPE" speedFactor="0.94" vaporized="traci"/>
    <tripinfo id="driver_45" depart="8.00" departLane="-146155465#2_0" departPos="5.10" departSpeed="0.00" departDelay="0.00" arrival="52.00" arrivalLane="-425516655#0_0" arrivalPos="1.23" arrivalSpeed="5.68" duration="44.00" routeLength="364.79" waitingTime="0.00" waitingCount="0" stopTime="0.00" timeLoss="10.25" rerouteNo="1" devices="tripinfo_driver_45" vType="DEFAULT_VEHTYPE" speedFactor="1.00" vaporized="traci"/>
    <tripinfo id="driver_2" depart="1.00" departLane="-254971068#1_0" departPos="5.10" departSpeed="0.00" departDelay="0.00" arrival="53.00" arrivalLane="779123575#0_1" arrivalPos="4.84" arrivalSpeed="15.79" duration="52.00" routeLength="390.07" waitingTime="9.00" waitingCount="1" stopTime="0.00" timeLoss="29.45" rerouteNo="3" devices="tripinfo_driver_2" vType="DEFAULT_VEHTYPE" speedFactor="1.01" vaporized="traci"/>
    <tripinfo id="driver_58" depart="10.00" departLane="417947134_0" departPos="5.10" departSpeed="0.00" departDelay="0.00" arrival="54.00" arrivalLane="290080810#2_0" arrivalPos="0.81" arrivalSpeed="20.46" duration="44.00" routeLength="247.07" waitingTime="16.00" waitingCount="1" stopTime="0.00" timeLoss="31.14" rerouteNo="0" devices="tripinfo_driver_58" vType="DEFAULT_VEHTYPE" speedFactor="0.97" vaporized=""/>
    <tripinfo id="driver_51" depart="9.00" departLane="-28841122_0" departPos="5.10" departSpeed="0.00" departDelay="0.00" arrival="55.00" arrivalLane="290080810#0_1" arrivalPos="0.20" arrivalSpeed="20.70" duration="46.00" routeLength="395.99" waitingTime="4.00" waitingCount="1" stopTime="0.00" timeLoss="25.37" rerouteNo="0" devices="tripinfo_driver_51" vType="DEFAULT_VEHTYPE" speedFactor="1.02" vaporized=""/>
    <tripinfo id="driver_50" depart="9.00" departLane="415726782#1_0" departPos="5.10" departSpeed="0.00" departDelay="0.00" arrival="59.00" arrivalLane="-746808401_0" arrivalPos="0.20" arrivalSpeed="3.79" duration="50.00" routeLength="375.35" waitingTime="11.00" waitingCount="1" stopTime="0.00" timeLoss="27.86" rerouteNo="0" devices="tripinfo_driver_50" vType="DEFAULT_VEHTYPE" speedFactor="1.17" vaporized=""/>
    <tripinfo id="driver_59" depart="10.00" departLane="-23866015_0" departPos="5.10" departSpeed="0.00" departDelay="0.00" arrival="63.00" arrivalLane=":4759500489_0_0" arrivalPos="0.40" arrivalSpeed="0.00" duration="53.00" routeLength="274.45" waitingTime="16.00" waitingCount="1" stopTime="0.00" timeLoss="23.26" rerouteNo="0" devices="tripinfo_driver_59" vType="DEFAULT_VEHTYPE" speedFactor="1.08" vaporized="traci"/>
    <tripinfo id="driver_47" depart="8.00" departLane="-619979105#1_0" departPos="4.54" departSpeed="0.00" departDelay="0.00" arrival="66.00" arrivalLane=":1723738829_5_0" arrivalPos="9.70" arrivalSpeed="5.92" duration="58.00" routeLength="116.57" waitingTime="36.00" waitingCount="1" stopTime="0.00" timeLoss="49.32" rerouteNo="0" devices="tripinfo_driver_47" vType="DEFAULT_VEHTYPE" speedFactor="0.88" vaporized="traci"/>
    <tripinfo id="driver_71" depart="51.00" departLane="254466695_0" departPos="5.10" departSpeed="0.00" departDelay="0.00" arrival="67.00" arrivalLane="254466695_0" arrivalPos="124.13" arrivalSpeed="0.08" duration="16.00" routeLength="119.03" waitingTime="1.00" waitingCount="1" stopTime="0.00" timeLoss="6.42" rerouteNo="0" devices="tripinfo_driver_71" vType="DEFAULT_VEHTYPE" speedFactor="1.03" vaporized="traci"/>
    <tripinfo id="driver_78" depart="60.00" departLane="1032777735_0" departPos="5.10" departSpeed="0.00" departDelay="0.00" arrival="84.00" arrivalLane="1032777738_1" arrivalPos="2.55" arrivalSpeed="8.47" duration="24.00" routeLength="180.02" waitingTime="0.00" waitingCount="0" stopTime="0.00" timeLoss="3.02" rerouteNo="1" devices="tripinfo_driver_78" vType="DEFAULT_VEHTYPE" speedFactor="1.02" vaporized="traci"/>
    <tripinfo id="driver_5" depart="1.00" departLane="-254758120#0_0" departPos="5.10" departSpeed="0.00" departDelay="0.00" arrival="91.00" arrivalLane=":65333831_1_0" arrivalPos="1.60" arrivalSpeed="2.60" duration="90.00" routeLength="262.73" waitingTime="45.00" waitingCount="1" stopTime="0.00" timeLoss="52.47" rerouteNo="0" devices="tripinfo_driver_5" vType="DEFAULT_VEHTYPE" speedFactor="0.83" vaporized="traci"/>
    <tripinfo id="driver_3" depart="1.00" departLane="-619979102#1_0" departPos="5.10" departSpeed="0.00" departDelay="0.00" arrival="92.00" arrivalLane="111552058#0_0" arrivalPos="0.69" arrivalSpeed="6.89" duration="91.00" routeLength="513.36" waitingTime="35.00" waitingCount="3" stopTime="0.00" timeLoss="66.50" rerouteNo="0" devices="tripinfo_driver_3" vType="DEFAULT_VEHTYPE" speedFactor="1.08" vaporized=""/>
    <tripinfo id="driver_55" depart="10.00" departLane="425516653#2_0" departPos="0.62" departSpeed="0.00" departDelay="0.00" arrival="93.00" arrivalLane=":7231121770_0_2" arrivalPos="1.12" arrivalSpeed="0.00" duration="83.00" routeLength="342.71" waitingTime="44.00" waitingCount="2" stopTime="0.00" timeLoss="64.41" rerouteNo="0" devices="tripinfo_driver_55" vType="DEFAULT_VEHTYPE" speedFactor="0.90" vaporized="traci"/>
    <tripinfo id="driver_72" depart="51.00" departLane="-27050839#1_0" departPos="5.10" departSpeed="0.00" departDelay="0.00" arrival="96.00" arrivalLane="-398849856_0" arrivalPos="21.59" arrivalSpeed="10.06" duration="45.00" routeLength="228.84" waitingTime="16.00" waitingCount="1" stopTime="0.00" timeLoss="23.55" rerouteNo="1" devices="tripinfo_driver_72" vType="DEFAULT_VEHTYPE" speedFactor="1.00" vaporized="traci"/>
    <tripinfo id="driver_61" depart="11.00" departLane="-133376113#0_0" departPos="5.10" departSpeed="0.00" departDelay="0.00" arrival="96.00" arrivalLane="-397146714#1_0" arrivalPos="0.20" arrivalSpeed="1.32" duration="85.00" routeLength="331.76" waitingTime="39.00" waitingCount="2" stopTime="2.00" timeLoss="62.59" rerouteNo="1" devices="tripinfo_driver_61 person_driver_61" vType="DEFAULT_VEHTYPE" speedFactor="1.02" vaporized=""/>
    <personinfo id="customer_1" depart="17.00" type="DEFAULT_PEDTYPE">
        <stop duration="76.00" arrival="93.00" arrivalPos="0.00" actType="waiting"/>
        <ride waitingTime="3.00" vehicle="driver_61" depart="96.00" arrival="96.00" arrivalPos="0.20" duration="0.00" routeLength="0.08" timeLoss="0.94"/>
        <stop duration="1.00" arrival="97.00" arrivalPos="132.49" actType="waiting"/>
    </personinfo>
    <tripinfo id="driver_75" depart="53.00" departLane="-619979114_0" departPos="0.20" departSpeed="0.00" departDelay="0.00" arrival="97.00" arrivalLane="-767935507_0" arrivalPos="0.20" arrivalSpeed="16.72" duration="44.00" routeLength="226.37" waitingTime="13.00" waitingCount="2" stopTime="0.00" timeLoss="33.57" rerouteNo="0" devices="tripinfo_driver_75" vType="DEFAULT_VEHTYPE" speedFactor="1.15" vaporized=""/>
    <tripinfo id="driver_7" depart="2.00" departLane="-614449860#1_0" departPos="0.20" departSpeed="0.00" departDelay="0.00" arrival="104.00" arrivalLane="-48211062#3_0" arrivalPos="132.47" arrivalSpeed="11.87" duration="102.00" routeLength="983.09" waitingTime="0.00" waitingCount="0" stopTime="2.00" timeLoss="31.16" rerouteNo="1" devices="tripinfo_driver_7 person_driver_7" vType="DEFAULT_VEHTYPE" speedFactor="0.89" vaporized=""/>
    <personinfo id="customer_6" depart="39.00" type="DEFAULT_PEDTYPE">
        <stop duration="48.00" arrival="87.00" arrivalPos="0.00" actType="waiting"/>
        <ride waitingTime="3.00" vehicle="driver_7" depart="90.00" arrival="104.00" arrivalPos="132.47" duration="14.00" routeLength="132.29" timeLoss="3.45"/>
        <stop duration="1.00" arrival="105.00" arrivalPos="2.69" actType="waiting"/>
    </personinfo>
    <tripinfo id="driver_67" depart="33.00" departLane="-449201857_0" departPos="5.10" departSpeed="0.00" departDelay="0.00" arrival="107.00" arrivalLane="-111547662#0_0" arrivalPos="3.26" arrivalSpeed="0.00" duration="74.00" routeLength="176.89" waitingTime="51.00" waitingCount="1" stopTime="0.00" timeLoss="56.74" rerouteNo="0" devices="tripinfo_driver_67" vType="DEFAULT_VEHTYPE" speedFactor="0.97" vaporized="traci"/>
    <tripinfo id="driver_60" depart="10.00" departLane="-781122181#2_0" departPos="0.20" departSpeed="0.00" departDelay="0.00" arrival="109.00" arrivalLane="546048996#0_0" arrivalPos="0.40" arrivalSpeed="9.59" duration="99.00" routeLength="394.84" waitingTime="50.00" waitingCount="2" stopTime="0.00" timeLoss="66.31" rerouteNo="0" devices="tripinfo_driver_60" vType="DEFAULT_VEHTYPE" speedFactor="1.12" vaporized=""/>
    <tripinfo id="driver_84" depart="98.00" departLane="619979115_0" departPos="5.10" departSpeed="0.00" departDelay="0.00" arrival="119.00" arrivalLane="224316522_1" arrivalPos="11.72" arrivalSpeed="9.16" duration="21.00" routeLength="186.16" waitingTime="0.00" waitingCount="0" stopTime="0.00" timeLoss="11.52" rerouteNo="0" devices="tripinfo_driver_84" vType="DEFAULT_VEHTYPE" speedFactor="1.10" vaporized="traci"/>
    <tripinfo id="driver_23" depart="4.00" departLane="286003244#0_0" departPos="0.20" departSpeed="0.00" departDelay="0.00" arrival="128.00" arrivalLane="28841121#1_0" arrivalPos="127.10" arrivalSpeed="0.00" duration="124.00" routeLength="646.56" waitingTime="61.00" waitingCount="2" stopTime="0.00" timeLoss="76.79" rerouteNo="0" devices="tripinfo_driver_23" vType="DEFAULT_VEHTYPE" speedFactor="0.89" vaporized="traci"/>
    <tripinfo id="driver_56" depart="10.00" departLane="30035682#1_0" departPos="5.10" departSpeed="0.00" departDelay="0.00" arrival="131.00" arrivalLane="-27167298#0_0" arrivalPos="3.15" arrivalSpeed="2.37" duration="121.00" routeLength="665.08" waitingTime="50.00" waitingCount="2" stopTime="0.00" timeLoss="75.14" rerouteNo="2" devices="tripinfo_driver_56" vType="DEFAULT_VEHTYPE" speedFactor="1.14" vaporized="traci"/>
    <tripinfo id="driver_49" depart="9.00" departLane="397146707_0" departPos="5.10" departSpeed="0.00" departDelay="0.00" arrival="131.00" arrivalLane="417099347#0_1" arrivalPos="2.19" arrivalSpeed="0.00" duration="122.00" routeLength="879.63" waitingTime="38.00" waitingCount="2" stopTime="0.00" timeLoss="61.05" rerouteNo="0" devices="tripinfo_driver_49" vType="DEFAULT_VEHTYPE" speedFactor="0.85" vaporized="traci"/>
    <tripinfo id="driver_40" depart="7.00" departLane="-681183503_0" departPos="5.10" departSpeed="0.00" departDelay="0.00" arrival="134.00" arrivalLane=":6988532590_11_0" arrivalPos="6.27" arrivalSpeed="0.00" duration="127.00" routeLength="1046.97" waitingTime="45.00" waitingCount="2" stopTime="0.00" timeLoss="72.95" rerouteNo="0" devices="tripinfo_driver_40" vType="DEFAULT_VEHTYPE" speedFactor="1.03" vaporized="traci"/>
    <tripinfo id="driver_25" depart="5.00" departLane="1061779494_0" departPos="5.10" departSpeed="0.00" departDelay="0.00" arrival="138.00" arrivalLane=":65305815_4_1" arrivalPos="11.02" arrivalSpeed="5.79" duration="133.00" routeLength="575.20" waitingTime="64.00" waitingCount="3" stopTime="0.00" timeLoss="96.00" rerouteNo="1" devices="tripinfo_driver_25" vType="DEFAULT_VEHTYPE" speedFactor="0.87" vaporized="traci"/>
    <tripinfo id="driver_33" depart="6.00" departLane="620169744#0_0" departPos="5.10" departSpeed="0.00" departDelay="0.00" arrival="142.00" arrivalLane="-513676830#1_0" arrivalPos="40.13" arrivalSpeed="0.00" duration="136.00" routeLength="472.60" waitingTime="81.00" waitingCount="3" stopTime="0.00" timeLoss="102.49" rerouteNo="0" devices="tripinfo_driver_33" vType="DEFAULT_VEHTYPE" speedFactor="1.17" vaporized="traci"/>
    <tripinfo id="driver_82" depart="93.00" departLane="283534317#1_0" departPos="5.10" departSpeed="0.00" departDelay="0.00" arrival="142.00" arrivalLane="1040509548#1_0" arrivalPos="35.41" arrivalSpeed="9.82" duration="49.00" routeLength="212.16" waitingTime="24.00" waitingCount="1" stopTime="0.00" timeLoss="34.52" rerouteNo="0" devices="tripinfo_driver_82" vType="DEFAULT_VEHTYPE" speedFactor="0.91" vaporized="traci"/>
    <tripinfo id="driver_44" depart="8.00" departLane="-204884397#1_0" departPos="5.10" departSpeed="0.00" departDelay="0.00" arrival="146.00" arrivalLane="934194966#1_0" arrivalPos="2.33" arrivalSpeed="0.00" duration="138.00" routeLength="541.68" waitingTime="80.00" waitingCount="2" stopTime="0.00" timeLoss="100.94" rerouteNo="1" devices="tripinfo_driver_44" vType="DEFAULT_VEHTYPE" speedFactor="1.04" vaporized="traci"/>
    <tripinfo id="driver_65" depart="31.00" departLane="-212214144#3_0" departPos="5.10" departSpeed="0.00" departDelay="0.00" arrival="146.00" arrivalLane="26988009#2_2" arrivalPos="3.52" arrivalSpeed="21.84" duration="115.00" routeLength="697.94" waitingTime="36.00" waitingCount="3" stopTime="3.00" timeLoss="68.12" rerouteNo="5" devices="tripinfo_driver_65" vType="DEFAULT_VEHTYPE" speedFactor="1.02" vaporized="traci"/>
    <tripinfo id="driver_13" depart="2.00" departLane="-88572965#2_0" departPos="0.24" departSpeed="0.00" departDelay="0.00" arrival="148.00" arrivalLane="772972817#0_0" arrivalPos="0.20" arrivalSpeed="5.01" duration="146.00" routeLength="895.71" waitingTime="65.00" waitingCount="3" stopTime="0.00" timeLoss="110.26" rerouteNo="0" devices="tripinfo_driver_13" vType="DEFAULT_VEHTYPE" speedFactor="1.12" vaporized=""/>
    <tripinfo id="driver_80" depart="79.00" departLane="-414948593#1_0" departPos="5.10" departSpeed="0.00" departDelay="0.00" arrival="149.00" arrivalLane="286003244#0_1" arrivalPos="0.20" arrivalSpeed="9.03" duration="70.00" routeLength="647.25" waitingTime="9.00" waitingCount="1" stopTime="0.00" timeLoss="31.38" rerouteNo="0" devices="tripinfo_driver_80" vType="DEFAULT_VEHTYPE" speedFactor="1.09" vaporized=""/>
    <tripinfo id="driver_96" depart="152.00" departLane="-449201857_0" departPos="5.10" departSpeed="0.00" departDelay="3.00" arrival="153.00" arrivalLane="-449201857_0" arrivalPos="5.10" arrivalSpeed="0.00" duration="1.00" routeLength="0.00" waitingTime="0.00" waitingCount="0" stopTime="0.00" timeLoss="0.00" rerouteNo="0" devices="tripinfo_driver_96" vType="DEFAULT_VEHTYPE" speedFactor="1.00" vaporized="traci"/>
    <tripinfo id="driver_21" depart="4.00" departLane="-254299125#1_0" departPos="5.10" departSpeed="0.00" departDelay="0.00" arrival="153.00" arrivalLane=":65317145_18_0" arrivalPos="6.36" arrivalSpeed="7.56" duration="149.00" routeLength="1178.19" waitingTime="51.00" waitingCount="2" stopTime="0.00" timeLoss="91.29" rerouteNo="0" devices="tripinfo_driver_21" vType="DEFAULT_VEHTYPE" speedFactor="1.01" vaporized="traci"/>
    <tripinfo id="driver_11" depart="2.00" departLane="-25372932#2_0" departPos="5.10" departSpeed="0.00" departDelay="0.00" arrival="159.00" arrivalLane="1030275358_1" arrivalPos="29.05" arrivalSpeed="8.52" duration="157.00" routeLength="575.14" waitingTime="92.00" waitingCount="3" stopTime="0.00" timeLoss="123.97" rerouteNo="2" devices="tripinfo_driver_11" vType="DEFAULT_VEHTYPE" speedFactor="1.03" vaporized="traci"/>
    <tripinfo id="driver_31" depart="6.00" departLane="-47108592#0_0" departPos="5.10" departSpeed="0.00" departDelay="0.00" arrival="159.00" arrivalLane="-399142440#7_0" arrivalPos="12.02" arrivalSpeed="15.77" duration="153.00" routeLength="1117.64" waitingTime="54.00" waitingCount="2" stopTime="0.00" timeLoss="87.85" rerouteNo="2" devices="tripinfo_driver_31" vType="DEFAULT_VEHTYPE" speedFactor="1.15" vaporized="traci"/>
    <tripinfo id="driver_79" depart="73.00" departLane="-425516650#0_0" departPos="5.10" departSpeed="0.00" departDelay="0.00" arrival="160.00" arrivalLane="417099344_0" arrivalPos="26.08" arrivalSpeed="19.41" duration="87.00" routeLength="276.48" waitingTime="57.00" waitingCount="1" stopTime="0.00" timeLoss="72.07" rerouteNo="1" devices="tripinfo_driver_79" vType="DEFAULT_VEHTYPE" speedFactor="0.83" vaporized="traci"/>
    <tripinfo id="driver_86" depart="105.00" departLane="446598001#0_0" departPos="5.10" departSpeed="0.00" departDelay="0.00" arrival="160.00" arrivalLane="87297164#7_0" arrivalPos="81.62" arrivalSpeed="0.00" duration="55.00" routeLength="327.48" waitingTime="19.00" waitingCount="2" stopTime="0.00" timeLoss="37.75" rerouteNo="0" devices="tripinfo_driver_86" vType="DEFAULT_VEHTYPE" speedFactor="0.97" vaporized="traci"/>
    <personinfo id="customer_25" depart="160.00" type="DEFAULT_PEDTYPE">
        <stop duration="2.00" arrival="162.00" arrivalPos="0.00" actType="waiting"/>
    </personinfo>
    <tripinfo id="driver_62" depart="11.00" departLane="-133376113#2_0" departPos="0.20" departSpeed="0.00" departDelay="0.00" arrival="162.00" arrivalLane="770522136#0_0" arrivalPos="41.77" arrivalSpeed="0.00" duration="151.00" routeLength="1117.02" waitingTime="40.00" waitingCount="2" stopTime="0.00" timeLoss="69.58" rerouteNo="1" devices="tripinfo_driver_62" vType="DEFAULT_VEHTYPE" speedFactor="0.99" vaporized="traci"/>
    <tripinfo id="driver_99" depart="153.00" departLane="-30025866#1_0" departPos="5.10" departSpeed="0.00" departDelay="0.00" arrival="169.00" arrivalLane="87297164#2_0" arrivalPos="15.37" arrivalSpeed="21.76" duration="16.00" routeLength="155.94" waitingTime="0.00" waitingCount="0" stopTime="0.00" timeLoss="6.89" rerouteNo="1" devices="tripinfo_driver_99" vType="DEFAULT_VEHTYPE" speedFactor="1.02" vaporized="traci"/>
    <tripinfo id="driver_76" depart="55.00" departLane="-365816000#1_0" departPos="0.20" departSpeed="0.00" departDelay="0.00" arrival="174.00" arrivalLane="88572932#1_0" arrivalPos="169.61" arrivalSpeed="0.00" duration="119.00" routeLength="585.82" waitingTime="65.00" waitingCount="2" stopTime="0.00" timeLoss="91.96" rerouteNo="0" devices="tripinfo_driver_76" vType="DEFAULT_VEHTYPE" speedFactor="1.04" vaporized="traci"/>
    <tripinfo id="driver_90" depart="116.00" departLane="-254971069#2_0" departPos="0.20" departSpeed="0.00" departDelay="0.00" arrival="177.00" arrivalLane="254756525#1_1" arrivalPos="124.75" arrivalSpeed="0.00" duration="61.00" routeLength="316.92" waitingTime="32.00" waitingCount="1" stopTime="0.00" timeLoss="44.69" rerouteNo="1" devices="tripinfo_driver_90" vType="DEFAULT_VEHTYPE" speedFactor="1.03" vaporized="traci"/>
    <tripinfo id="driver_8" depart="2.00" departLane="-446598044#1_0" departPos="5.10" departSpeed="0.00" departDelay="0.00" arrival="183.00" arrivalLane="35977367#3_0" arrivalPos="0.38" arrivalSpeed="4.94" duration="181.00" routeLength="1150.75" waitingTime="67.00" waitingCount="2" stopTime="0.00" timeLoss="95.20" rerouteNo="2" devices="tripinfo_driver_8" vType="DEFAULT_VEHTYPE" speedFactor="0.94" vaporized="traci"/>
    <tripinfo id="driver_106" depart="184.00" departLane="-512523366#0_0" departPos="0.20" departSpeed="0.00" departDelay="23.00" arrival="185.00" arrivalLane="-512523366#0_0" arrivalPos="0.20" arrivalSpeed="0.00" duration="1.00" routeLength="0.00" waitingTime="0.00" waitingCount="0" stopTime="0.00" timeLoss="0.00" rerouteNo="0" devices="tripinfo_driver_106" vType="DEFAULT_VEHTYPE" speedFactor="0.96" vaporized="traci"/>
    <tripinfo id="driver_32" depart="6.00" departLane="-254758127#5_0" departPos="5.10" departSpeed="0.00" departDelay="0.00" arrival="185.00" arrivalLane="-27050852#2_0" arrivalPos="1.88" arrivalSpeed="2.25" duration="179.00" routeLength="1246.05" waitingTime="55.00" waitingCount="2" stopTime="0.00" timeLoss="98.06" rerouteNo="2" devices="tripinfo_driver_32" vType="DEFAULT_VEHTYPE" speedFactor="1.01" vaporized="traci"/>
    <tripinfo id="driver_92" depart="125.00" departLane="225847522_0" departPos="5.10" departSpeed="0.00" departDelay="0.00" arrival="186.00" arrivalLane="254448252_2" arrivalPos="17.16" arrivalSpeed="8.11" duration="61.00" routeLength="258.05" waitingTime="20.00" waitingCount="1" stopTime="0.00" timeLoss="28.62" rerouteNo="0" devices="tripinfo_driver_92" vType="DEFAULT_VEHTYPE" speedFactor="0.93" vaporized="traci"/>
    <tripinfo id="driver_73" depart="52.00" departLane="1030276936#1_0" departPos="5.10" departSpeed="0.00" departDelay="0.00" arrival="186.00" arrivalLane="-254396709#2_0" arrivalPos="0.20" arrivalSpeed="2.36" duration="134.00" routeLength="613.58" waitingTime="66.00" waitingCount="3" stopTime="3.00" timeLoss="100.92" rerouteNo="1" devices="tripinfo_driver_73" vType="DEFAULT_VEHTYPE" speedFactor="1.02" vaporized=""/>
    <tripinfo id="driver_81" depart="84.00" departLane="1062095135_0" departPos="5.10" departSpeed="0.00" departDelay="0.00" arrival="187.00" arrivalLane="1062095136_1" arrivalPos="1.12" arrivalSpeed="8.67" duration="103.00" routeLength="504.22" waitingTime="37.00" waitingCount="1" stopTime="0.00" timeLoss="47.30" rerouteNo="1" devices="tripinfo_driver_81" vType="DEFAULT_VEHTYPE" speedFactor="1.06" vaporized="traci"/>
    <tripinfo id="driver_24" depart="5.00" departLane="-24335487_0" departPos="5.10" departSpeed="0.00" departDelay="0.00" arrival="187.00" arrivalLane="-1020512097#4_0" arrivalPos="0.20" arrivalSpeed="2.31" duration="182.00" routeLength="525.56" waitingTime="112.00" waitingCount="4" stopTime="2.00" timeLoss="143.48" rerouteNo="1" devices="tripinfo_driver_24 person_driver_24" vType="DEFAULT_VEHTYPE" speedFactor="0.83" vaporized=""/>
    <personinfo id="customer_12" depart="68.00" type="DEFAULT_PEDTYPE">
        <stop duration="115.00" arrival="183.00" arrivalPos="0.00" actType="waiting"/>
        <ride waitingTime="4.00" vehicle="driver_24" depart="187.00" arrival="187.00" arrivalPos="0.20" duration="0.00" routeLength="0.00" timeLoss="0.75"/>
        <stop duration="1.00" arrival="188.00" arrivalPos="229.94" actType="waiting"/>
    </personinfo>
    <personinfo id="customer_27" depart="188.00" type="DEFAULT_PEDTYPE">
        <stop duration="1.00" arrival="189.00" arrivalPos="4.16" actType="waiting"/>
    </personinfo>
    <tripinfo id="driver_101" depart="155.00" departLane="588340588_0" departPos="5.10" departSpeed="0.00" departDelay="0.00" arrival="193.00" arrivalLane=":7233659772_0_0" arrivalPos="0.05" arrivalSpeed="0.00" duration="38.00" routeLength="221.76" waitingTime="11.00" waitingCount="1" stopTime="0.00" timeLoss="22.65" rerouteNo="1" devices="tripinfo_driver_101" vType="DEFAULT_VEHTYPE" speedFactor="1.15" vaporized="traci"/>
    <tripinfo id="driver_103" depart="159.00" departLane="-277451471_0" departPos="5.10" departSpeed="0.00" departDelay="0.00" arrival="193.00" arrivalLane="771447912#3_1" arrivalPos="2.09" arrivalSpeed="12.12" duration="34.00" routeLength="259.47" waitingTime="2.00" waitingCount="1" stopTime="0.00" timeLoss="9.79" rerouteNo="0" devices="tripinfo_driver_103" vType="DEFAULT_VEHTYPE" speedFactor="1.12" vaporized=""/>