<?xml version="1.0" encoding="UTF-8"?>

<!-- generated on 2022-07-28 12:10:46 by Eclipse SUMO sumo Version 1.13.0
<configuration xmlns:xsi="http://www.w3.org/2001/XMLSchema-instance" xsi:noNamespaceSchemaLocation="http://sumo.dlr.de/xsd/sumoConfiguration.xsd">

    <input>
        <net-file value="net_config/schaffhausen.net.xml"/>
        <additional-files value="net_config/add.add.xml"/>
    </input>

    <output>
        <tripinfo-output value="net_config/tripinfo.xml"/>
    </output>

    <time>
        <step-length value="1"/>
    </time>

    <processing>
        <time-to-teleport value="0"/>
    </processing>

    <report>
        <log value="/Users/davidemolinelli/Documents/phd/repositories/ride-sharing-simulator/logfile.txt"/>
    </report>

    <traci_server>
        <remote-port value="60107"/>
    </traci_server>

    <gui_only>
        <gui-settings-file value="net_config/gui-settings.cfg"/>
        <tracker-interval value="1"/>
    </gui_only>

</configuration>
-->

<tripinfos xmlns:xsi="http://www.w3.org/2001/XMLSchema-instance" xsi:noNamespaceSchemaLocation="http://sumo.dlr.de/xsd/tripinfo_file.xsd">
    <personinfo id="customer_0" depart="10.00" type="DEFAULT_PEDTYPE">
        <stop duration="1.00" arrival="11.00" arrivalPos="1.22" actType="waiting"/>
    </personinfo>
    <personinfo id="customer_2" depart="15.00" type="DEFAULT_PEDTYPE">
        <stop duration="1.00" arrival="16.00" arrivalPos="0.00" actType="waiting"/>
    </personinfo>
    <personinfo id="customer_3" depart="20.00" type="DEFAULT_PEDTYPE">
        <stop duration="1.00" arrival="21.00" arrivalPos="27.98" actType="waiting"/>
    </personinfo>
    <personinfo id="customer_4" depart="20.00" type="DEFAULT_PEDTYPE">
        <stop duration="1.00" arrival="21.00" arrivalPos="142.04" actType="waiting"/>
    </personinfo>
    <personinfo id="customer_1" depart="15.00" type="DEFAULT_PEDTYPE">
        <stop duration="12.00" arrival="27.00" arrivalPos="8.48" actType="waiting"/>
    </personinfo>
    <personinfo id="customer_5" depart="30.00" type="DEFAULT_PEDTYPE">
        <stop duration="1.00" arrival="31.00" arrivalPos="125.69" actType="waiting"/>
    </personinfo>
    <personinfo id="customer_10" depart="50.00" type="DEFAULT_PEDTYPE">
        <stop duration="1.00" arrival="51.00" arrivalPos="23.30" actType="waiting"/>
    </personinfo>
    <personinfo id="customer_8" depart="35.00" type="DEFAULT_PEDTYPE">
        <stop duration="16.00" arrival="51.00" arrivalPos="0.00" actType="waiting"/>
    </personinfo>
    <personinfo id="customer_11" depart="55.00" type="DEFAULT_PEDTYPE">
        <stop duration="1.00" arrival="56.00" arrivalPos="247.83" actType="waiting"/>
    </personinfo>
    <personinfo id="customer_12" depart="55.00" type="DEFAULT_PEDTYPE">
        <stop duration="1.00" arrival="56.00" arrivalPos="3184.67" actType="waiting"/>
    </personinfo>
    <personinfo id="customer_16" depart="70.00" type="DEFAULT_PEDTYPE">
        <stop duration="1.00" arrival="71.00" arrivalPos="942.87" actType="waiting"/>
    </personinfo>
    <personinfo id="customer_13" depart="60.00" type="DEFAULT_PEDTYPE">
        <stop duration="15.00" arrival="75.00" arrivalPos="0.00" actType="waiting"/>
    </personinfo>
    <personinfo id="customer_20" depart="100.00" type="DEFAULT_PEDTYPE">
        <stop duration="1.00" arrival="101.00" arrivalPos="0.00" actType="waiting"/>
    </personinfo>
    <personinfo id="customer_23" depart="110.00" type="DEFAULT_PEDTYPE">
        <stop duration="1.00" arrival="111.00" arrivalPos="1541.66" actType="waiting"/>
    </personinfo>
    <personinfo id="customer_27" depart="125.00" type="DEFAULT_PEDTYPE">
        <stop duration="1.00" arrival="126.00" arrivalPos="509.75" actType="waiting"/>
    </personinfo>
    <personinfo id="customer_24" depart="115.00" type="DEFAULT_PEDTYPE">
        <stop duration="13.00" arrival="128.00" arrivalPos="112.64" actType="waiting"/>
    </personinfo>
    <personinfo id="customer_29" depart="135.00" type="DEFAULT_PEDTYPE">
        <stop duration="1.00" arrival="136.00" arrivalPos="2270.71" actType="waiting"/>
    </personinfo>
    <personinfo id="customer_31" depart="140.00" type="DEFAULT_PEDTYPE">
        <stop duration="1.00" arrival="141.00" arrivalPos="771.06" actType="waiting"/>
    </personinfo>
    <personinfo id="customer_30" depart="140.00" type="DEFAULT_PEDTYPE">
        <stop duration="1.00" arrival="141.00" arrivalPos="0.00" actType="waiting"/>
    </personinfo>
    <tripinfo id="driver_4" depart="40.00" departLane="-4578027#3_0" departPos="5.10" departSpeed="0.00" departDelay="0.00" arrival="150.00" arrivalLane="-4578027#0_0" arrivalPos="649.37" arrivalSpeed="21.14" duration="110.00" routeLength="2214.31" waitingTime="0.00" waitingCount="0" stopTime="0.00" timeLoss="8.89" rerouteNo="0" devices="tripinfo_driver_4" vType="DEFAULT_VEHTYPE" speedFactor="0.99" vaporized=""/>
    <personinfo id="customer_46" depart="185.00" type="DEFAULT_PEDTYPE">
        <stop duration="1.00" arrival="186.00" arrivalPos="197.33" actType="waiting"/>
    </personinfo>
    <tripinfo id="driver_10" depart="90.00" departLane="-4983944#1_0" departPos="5.10" departSpeed="0.00" departDelay="0.00" arrival="188.00" arrivalLane="-686311208#2_0" arrivalPos="45.38" arrivalSpeed="8.40" duration="98.00" routeLength="1160.73" waitingTime="0.00" waitingCount="0" stopTime="0.00" timeLoss="12.61" rerouteNo="0" devices="tripinfo_driver_10" vType="DEFAULT_VEHTYPE" speedFactor="1.13" vaporized=""/>
    <personinfo id="customer_44" depart="180.00" type="DEFAULT_PEDTYPE">
        <stop duration="9.00" arrival="189.00" arrivalPos="0.00" actType="waiting"/>
    </personinfo>
    <personinfo id="customer_36" depart="160.00" type="DEFAULT_PEDTYPE">
        <stop duration="32.00" arrival="192.00" arrivalPos="0.00" actType="waiting"/>
    </personinfo>
    <personinfo id="customer_42" depart="175.00" type="DEFAULT_PEDTYPE">
        <stop duration="21.00" arrival="196.00" arrivalPos="0.00" actType="waiting"/>
    </personinfo>
    <tripinfo id="driver_30" depart="170.00" departLane="-254428852#0_0" departPos="5.10" departSpeed="0.00" departDelay="0.00" arrival="200.00" arrivalLane="-254428852#0_0" arrivalPos="340.70" arrivalSpeed="12.61" duration="30.00" routeLength="335.60" waitingTime="0.00" waitingCount="0" stopTime="0.00" timeLoss="4.17" rerouteNo="1" devices="tripinfo_driver_30" vType="DEFAULT_VEHTYPE" speedFactor="0.97" vaporized="traci"/>
    <tripinfo id="driver_6" depart="60.00" departLane="-24419521#1_0" departPos="5.10" departSpeed="0.00" departDelay="0.00" arrival="202.00" arrivalLane="-4587984#1_0" arrivalPos="88.66" arrivalSpeed="13.96" duration="142.00" routeLength="1568.54" waitingTime="0.00" waitingCount="0" stopTime="2.00" timeLoss="20.08" rerouteNo="1" devices="tripinfo_driver_6 person_driver_6" vType="DEFAULT_VEHTYPE" speedFactor="1.01" vaporized=""/>
    <personinfo id="customer_14" depart="60.00" type="DEFAULT_PEDTYPE">
        <stop duration="130.00" arrival="190.00" arrivalPos="0.00" actType="waiting"/>
        <ride waitingTime="3.00" vehicle="driver_6" depart="193.00" arrival="202.00" arrivalPos="88.66" duration="9.00" routeLength="88.48" timeLoss="3.37"/>
        <stop duration="1.00" arrival="203.00" arrivalPos="100.56" actType="waiting"/>
    </personinfo>
    <personinfo id="customer_47" depart="190.00" type="DEFAULT_PEDTYPE">
        <stop duration="13.00" arrival="203.00" arrivalPos="14.37" actType="waiting"/>
    </personinfo>
    <personinfo id="customer_51" depart="205.00" type="DEFAULT_PEDTYPE">
        <stop duration="1.00" arrival="206.00" arrivalPos="69.74" actType="waiting"/>
    </personinfo>
    <personinfo id="customer_52" depart="210.00" type="DEFAULT_PEDTYPE">
        <stop duration="1.00" arrival="211.00" arrivalPos="32.17" actType="waiting"/>
    </personinfo>
    <personinfo id="customer_55" depart="220.00" type="DEFAULT_PEDTYPE">
        <stop duration="1.00" arrival="221.00" arrivalPos="7.14" actType="waiting"/>
    </personinfo>
    <personinfo id="customer_57" depart="225.00" type="DEFAULT_PEDTYPE">
        <stop duration="1.00" arrival="226.00" arrivalPos="0.00" actType="waiting"/>
    </personinfo>
    <tripinfo id="driver_20" depart="125.00" departLane="-166994715#1_0" departPos="5.10" departSpeed="0.00" departDelay="0.00" arrival="226.00" arrivalLane="25814420#1_0" arrivalPos="85.54" arrivalSpeed="12.87" duration="101.00" routeLength="1174.69" waitingTime="0.00" waitingCount="0" stopTime="0.00" timeLoss="13.10" rerouteNo="0" devices="tripinfo_driver_20" vType="DEFAULT_VEHTYPE" speedFactor="1.00" vaporized=""/>
    <personinfo id="customer_54" depart="220.00" type="DEFAULT_PEDTYPE">
        <stop duration="7.00" arrival="227.00" arrivalPos="0.00" actType="waiting"/>
    </personinfo>
    <personinfo id="customer_60" depart="230.00" type="DEFAULT_PEDTYPE">
        <stop duration="1.00" arrival="231.00" arrivalPos="0.00" actType="waiting"/>
    </personinfo>
    <personinfo id="customer_61" depart="230.00" type="DEFAULT_PEDTYPE">
        <stop duration="1.00" arrival="231.00" arrivalPos="763.10" actType="waiting"/>
    </personinfo>
    <personinfo id="customer_50" depart="205.00" type="DEFAULT_PEDTYPE">
        <stop duration="27.00" arrival="232.00" arrivalPos="268.22" actType="waiting"/>
    </personinfo>
    <personinfo id="customer_59" depart="225.00" type="DEFAULT_PEDTYPE">
        <stop duration="12.00" arrival="237.00" arrivalPos="76.47" actType="waiting"/>
    </personinfo>
    <personinfo id="customer_56" depart="220.00" type="DEFAULT_PEDTYPE">
        <stop duration="18.00" arrival="238.00" arrivalPos="76.19" actType="waiting"/>
    </personinfo>
    <personinfo id="customer_65" depart="240.00" type="DEFAULT_PEDTYPE">
        <stop duration="10.00" arrival="250.00" arrivalPos="47.87" actType="waiting"/>
    </personinfo>
    <tripinfo id="driver_32" depart="175.00" departLane="239921757#1_0" departPos="5.10" departSpeed="0.00" departDelay="0.00" arrival="260.00" arrivalLane="239914472#1_0" arrivalPos="18.70" arrivalSpeed="12.28" duration="85.00" routeLength="1284.35" waitingTime="0.00" waitingCount="0" stopTime="0.00" timeLoss="9.17" rerouteNo="1" devices="tripinfo_driver_32" vType="DEFAULT_VEHTYPE" speedFactor="0.96" vaporized="traci"/>
    <personinfo id="customer_62" depart="235.00" type="DEFAULT_PEDTYPE">
        <stop duration="29.00" arrival="264.00" arrivalPos="111.20" actType="waiting"/>
    </personinfo>
    <personinfo id="customer_72" depart="265.00" type="DEFAULT_PEDTYPE">
        <stop duration="1.00" arrival="266.00" arrivalPos="316.75" actType="waiting"/>
    </personinfo>
    <tripinfo id="driver_47" depart="230.00" departLane="-26757954#19_0" departPos="1.03" departSpeed="0.00" departDelay="0.00" arrival="268.00" arrivalLane="-279398447#0_0" arrivalPos="72.64" arrivalSpeed="7.32" duration="38.00" routeLength="254.93" waitingTime="0.00" waitingCount="0" stopTime="0.00" timeLoss="7.78" rerouteNo="0" devices="tripinfo_driver_47" vType="DEFAULT_VEHTYPE" speedFactor="1.01" vaporized=""/>
    <personinfo id="customer_71" depart="265.00" type="DEFAULT_PEDTYPE">
        <stop duration="7.00" arrival="272.00" arrivalPos="83.06" actType="waiting"/>
    </personinfo>
    <personinfo id="customer_77" depart="275.00" type="DEFAULT_PEDTYPE">
        <stop duration="1.00" arrival="276.00" arrivalPos="0.00" actType="waiting"/>
    </personinfo>
    <personinfo id="customer_78" depart="280.00" type="DEFAULT_PEDTYPE">
        <stop duration="1.00" arrival="281.00" arrivalPos="64.97" actType="waiting"/>
    </personinfo>
    <personinfo id="customer_74" depart="270.00" type="DEFAULT_PEDTYPE">
        <stop duration="17.00" arrival="287.00" arrivalPos="305.14" actType="waiting"/>
    </personinfo>
    <personinfo id="customer_81" depart="290.00" type="DEFAULT_PEDTYPE">
        <stop duration="1.00" arrival="291.00" arrivalPos="75.80" actType="waiting"/>
    </personinfo>
    <personinfo id="customer_82" depart="290.00" type="DEFAULT_PEDTYPE">
        <stop duration="1.00" arrival="291.00" arrivalPos="2724.48" actType="waiting"/>
    </personinfo>
    <personinfo id="customer_75" depart="275.00" type="DEFAULT_PEDTYPE">
        <stop duration="29.00" arrival="304.00" arrivalPos="101.95" actType="waiting"/>
    </personinfo>
    <personinfo id="customer_83" depart="295.00" type="DEFAULT_PEDTYPE">
        <stop duration="11.00" arrival="306.00" arrivalPos="0.00" actType="waiting"/>
    </personinfo>
    <personinfo id="customer_86" depart="300.00" type="DEFAULT_PEDTYPE">
        <stop duration="9.00" arrival="309.00" arrivalPos="0.00" actType="waiting"/>
    </personinfo>
    <personinfo id="customer_92" depart="310.00" type="DEFAULT_PEDTYPE">
        <stop duration="1.00" arrival="311.00" arrivalPos="916.11" actType="waiting"/>
    </personinfo>
    <personinfo id="customer_88" depart="305.00" type="DEFAULT_PEDTYPE">
        <stop duration="9.00" arrival="314.00" arrivalPos="0.61" actType="waiting"/>
    </personinfo>
    <personinfo id="customer_87" depart="305.00" type="DEFAULT_PEDTYPE">
        <stop duration="13.00" arrival="318.00" arrivalPos="55.78" actType="waiting"/>
    </personinfo>
    <personinfo id="customer_34" depart="155.00" type="DEFAULT_PEDTYPE">
        <stop duration="71.00" arrival="226.00" arrivalPos="5.72" actType="waiting"/>
        <ride waitingTime="3.00" vehicle="driver_23" depart="229.00" arrival="313.00" arrivalPos="26.19" duration="84.00" routeLength="894.99" timeLoss="19.58"/>
        <stop duration="5.00" arrival="318.00" arrivalPos="26.19" actType="waiting"/>
    </personinfo>
    <personinfo id="customer_90" depart="310.00" type="DEFAULT_PEDTYPE">
        <stop duration="13.00" arrival="323.00" arrivalPos="196.28" actType="waiting"/>
    </personinfo>
    <personinfo id="customer_99" depart="330.00" type="DEFAULT_PEDTYPE">
        <stop duration="1.00" arrival="331.00" arrivalPos="269.22" actType="waiting"/>
    </personinfo>
    <personinfo id="customer_98" depart="330.00" type="DEFAULT_PEDTYPE">
        <stop duration="1.00" arrival="331.00" arrivalPos="0.00" actType="waiting"/>
    </personinfo>
    <tripinfo id="driver_7" depart="70.00" departLane="-26338785_0" departPos="5.10" departSpeed="0.00" departDelay="0.00" arrival="335.00" arrivalLane="197653046_0" arrivalPos="148.42" arrivalSpeed="18.64" duration="265.00" routeLength="3066.49" waitingTime="0.00" waitingCount="0" stopTime="2.00" timeLoss="34.77" rerouteNo="1" devices="tripinfo_driver_7 person_driver_7" vType="DEFAULT_VEHTYPE" speedFactor="0.89" vaporized=""/>
    <tripinfo id="driver_83" depart="315.00" departLane="-404213495_0" departPos="5.10" departSpeed="0.00" departDelay="0.00" arrival="335.00" arrivalLane="-226215976#1_0" arrivalPos="6.52" arrivalSpeed="6.92" duration="20.00" routeLength="139.07" waitingTime="0.00" waitingCount="0" stopTime="0.00" timeLoss="6.05" rerouteNo="0" devices="tripinfo_driver_83" vType="DEFAULT_VEHTYPE" speedFactor="0.92" vaporized=""/>
    <personinfo id="customer_32" depart="145.00" type="DEFAULT_PEDTYPE">
        <stop duration="175.00" arrival="320.00" arrivalPos="0.00" actType="waiting"/>
        <ride waitingTime="3.00" vehicle="driver_7" depart="323.00" arrival="335.00" arrivalPos="148.42" duration="12.00" routeLength="148.29" timeLoss="4.92"/>
        <stop duration="1.00" arrival="336.00" arrivalPos="92.69" actType="waiting"/>
    </personinfo>
    <personinfo id="customer_95" depart="320.00" type="DEFAULT_PEDTYPE">
        <stop duration="16.00" arrival="336.00" arrivalPos="0.00" actType="waiting"/>
    </personinfo>
    <personinfo id="customer_101" depart="340.00" type="DEFAULT_PEDTYPE">
        <stop duration="1.00" arrival="341.00" arrivalPos="0.00" actType="waiting"/>
    </personinfo>
    <personinfo id="customer_102" depart="350.00" type="DEFAULT_PEDTYPE">
        <stop duration="1.00" arrival="351.00" arrivalPos="111.63" actType="waiting"/>
    </personinfo>
    <personinfo id="customer_106" depart="355.00" type="DEFAULT_PEDTYPE">
        <stop duration="1.00" arrival="356.00" arrivalPos="112.80" actType="waiting"/>
    </personinfo>
    <personinfo id="customer_100" depart="335.00" type="DEFAULT_PEDTYPE">
        <stop duration="22.00" arrival="357.00" arrivalPos="0.00" actType="waiting"/>
    </personinfo>
    <tripinfo id="driver_13" depart="110.00" departLane="-23967095#2_0" departPos="5.10" departSpeed="0.00" departDelay="0.00" arrival="357.00" arrivalLane="-24524219#2_0" arrivalPos="5.24" arrivalSpeed="4.87" duration="247.00" routeLength="2192.29" waitingTime="0.00" waitingCount="0" stopTime="2.00" timeLoss="32.61" rerouteNo="1" devices="tripinfo_driver_13 person_driver_13" vType="DEFAULT_VEHTYPE" speedFactor="0.97" vaporized=""/>
    <personinfo id="customer_22" depart="110.00" type="DEFAULT_PEDTYPE">
        <stop duration="243.00" arrival="353.00" arrivalPos="0.00" actType="waiting"/>
        <ride waitingTime="3.00" vehicle="driver_13" depart="356.00" arrival="357.00" arrivalPos="5.24" duration="1.00" routeLength="5.14" timeLoss="1.46"/>
        <stop duration="1.00" arrival="358.00" arrivalPos="21.51" actType="waiting"/>
    </personinfo>
    <personinfo id="customer_103" depart="350.00" type="DEFAULT_PEDTYPE">
        <stop duration="9.00" arrival="359.00" arrivalPos="0.00" actType="waiting"/>
    </personinfo>
    <personinfo id="customer_33" depart="150.00" type="DEFAULT_PEDTYPE">
        <stop duration="124.00" arrival="274.00" arrivalPos="21.11" actType="waiting"/>
        <ride waitingTime="3.00" vehicle="driver_19" depart="277.00" arrival="357.00" arrivalPos="192.54" duration="80.00" routeLength="831.51" timeLoss="10.80"/>
        <stop duration="5.00" arrival="362.00" arrivalPos="192.55" actType="waiting"/>
    </personinfo>
    <personinfo id="customer_96" depart="325.00" type="DEFAULT_PEDTYPE">
        <stop duration="39.00" arrival="364.00" arrivalPos="0.00" actType="waiting"/>
    </personinfo>
    <personinfo id="customer_104" depart="355.00" type="DEFAULT_PEDTYPE">
        <stop duration="9.00" arrival="364.00" arrivalPos="49.38" actType="waiting"/>
    </personinfo>
    <tripinfo id="driver_58" depart="255.00" departLane="-24893177#0_0" departPos="5.10" departSpeed="0.00" departDelay="0.00" arrival="365.00" arrivalLane="4674329#1_0" arrivalPos="579.26" arrivalSpeed="15.84" duration="110.00" routeLength="1549.01" waitingTime="0.00" waitingCount="0" stopTime="0.00" timeLoss="12.42" rerouteNo="0" devices="tripinfo_driver_58" vType="DEFAULT_VEHTYPE" speedFactor="1.15" vaporized=""/>
    <personinfo id="customer_113" depart="365.00" type="DEFAULT_PEDTYPE">
        <stop duration="1.00" arrival="366.00" arrivalPos="0.00" actType="waiting"/>
    </personinfo>
    <personinfo id="customer_114" depart="370.00" type="DEFAULT_PEDTYPE">
        <stop duration="1.00" arrival="371.00" arrivalPos="46.79" actType="waiting"/>
    </personinfo>
    <personinfo id="customer_41" depart="170.00" type="DEFAULT_PEDTYPE">
        <stop duration="93.00" arrival="263.00" arrivalPos="0.00" actType="waiting"/>
        <ride waitingTime="2.00" vehicle="driver_27" depart="265.00" arrival="369.00" arrivalPos="87.04" duration="104.00" routeLength="1114.92" timeLoss="12.02"/>
        <stop duration="5.00" arrival="374.00" arrivalPos="87.04" actType="waiting"/>
    </personinfo>
    <tripinfo id="driver_67" depart="275.00" departLane="-4643412#0_0" departPos="5.10" departSpeed="0.00" departDelay="0.00" arrival="378.00" arrivalLane="1000333501_0" arrivalPos="15.36" arrivalSpeed="11.00" duration="103.00" routeLength="1063.96" waitingTime="0.00" waitingCount="0" stopTime="0.00" timeLoss="16.57" rerouteNo="0" devices="tripinfo_driver_67" vType="DEFAULT_VEHTYPE" speedFactor="0.94" vaporized=""/>
    <personinfo id="customer_115" depart="380.00" type="DEFAULT_PEDTYPE">
        <stop duration="1.00" arrival="381.00" arrivalPos="0.00" actType="waiting"/>
    </personinfo>
    <personinfo id="customer_116" depart="380.00" type="DEFAULT_PEDTYPE">
        <stop duration="1.00" arrival="381.00" arrivalPos="29.71" actType="waiting"/>
    </personinfo>
    <personinfo id="customer_118" depart="385.00" type="DEFAULT_PEDTYPE">
        <stop duration="1.00" arrival="386.00" arrivalPos="0.00" actType="waiting"/>
    </personinfo>
    <personinfo id="customer_119" depart="385.00" type="DEFAULT_PEDTYPE">
        <stop duration="1.00" arrival="386.00" arrivalPos="0.00" actType="waiting"/>
    </personinfo>
    <personinfo id="customer_121" depart="385.00" type="DEFAULT_PEDTYPE">
        <stop duration="1.00" arrival="386.00" arrivalPos="2221.79" actType="waiting"/>
    </personinfo>
    <personinfo id="customer_45" depart="185.00" type="DEFAULT_PEDTYPE">
        <stop duration="103.00" arrival="288.00" arrivalPos="0.00" actType="waiting"/>
        <ride waitingTime="3.00" vehicle="driver_25" depart="291.00" arrival="384.00" arrivalPos="268.70" duration="93.00" routeLength="1133.33" timeLoss="14.20"/>
        <stop duration="5.00" arrival="389.00" arrivalPos="268.72" actType="waiting"/>
    </personinfo>
    <personinfo id="customer_18" depart="90.00" type="DEFAULT_PEDTYPE">
        <stop duration="101.00" arrival="191.00" arrivalPos="0.00" actType="waiting"/>
        <ride waitingTime="3.00" vehicle="driver_3" depart="194.00" arrival="384.00" arrivalPos="68.17" duration="190.00" routeLength="1892.42" timeLoss="33.99"/>
        <stop duration="5.00" arrival="389.00" arrivalPos="68.19" actType="waiting"/>
    </personinfo>
    <personinfo id="customer_123" depart="390.00" type="DEFAULT_PEDTYPE">
        <stop duration="1.00" arrival="391.00" arrivalPos="63.57" actType="waiting"/>
    </personinfo>
    <tripinfo id="driver_57" depart="255.00" departLane="-25200403#1_0" departPos="0.97" departSpeed="0.00" departDelay="0.00" arrival="391.00" arrivalLane="-4891544#4_0" arrivalPos="8.34" arrivalSpeed="7.21" duration="136.00" routeLength="1111.38" waitingTime="0.00" waitingCount="0" stopTime="0.00" timeLoss="15.80" rerouteNo="0" devices="tripinfo_driver_57" vType="DEFAULT_VEHTYPE" speedFactor="1.02" vaporized=""/>
    <personinfo id="customer_28" depart="130.00" type="DEFAULT_PEDTYPE">
        <stop duration="93.00" arrival="223.00" arrivalPos="0.00" actType="waiting"/>
        <ride waitingTime="3.00" vehicle="driver_14" depart="226.00" arrival="386.00" arrivalPos="108.46" duration="160.00" routeLength="2128.35" timeLoss="29.31"/>
        <stop duration="5.00" arrival="391.00" arrivalPos="108.47" actType="waiting"/>
    </personinfo>
    <personinfo id="customer_117" depart="380.00" type="DEFAULT_PEDTYPE">
        <stop duration="17.00" arrival="397.00" arrivalPos="66.30" actType="waiting"/>
    </personinfo>
    <personinfo id="customer_122" depart="390.00" type="DEFAULT_PEDTYPE">
        <stop duration="11.00" arrival="401.00" arrivalPos="13.52" actType="waiting"/>
    </personinfo>
    <tripinfo id="driver_39" depart="195.00" departLane="-1008860041#2_0" departPos="5.10" departSpeed="0.00" departDelay="0.00" arrival="404.00" arrivalLane="-26094856#5_0" arrivalPos="82.21" arrivalSpeed="8.18" duration="209.00" routeLength="2662.40" waitingTime="0.00" waitingCount="0" stopTime="0.00" timeLoss="20.87" rerouteNo="0" devices="tripinfo_driver_39" vType="DEFAULT_VEHTYPE" speedFactor="1.00" vaporized=""/>
    <personinfo id="customer_128" depart="405.00" type="DEFAULT_PEDTYPE">
        <stop duration="1.00" arrival="406.00" arrivalPos="1.75" actType="waiting"/>
    </personinfo>
    <personinfo id="customer_129" depart="405.00" type="DEFAULT_PEDTYPE">
        <stop duration="1.00" arrival="406.00" arrivalPos="0.00" actType="waiting"/>
    </personinfo>
    <personinfo id="customer_131" depart="410.00" type="DEFAULT_PEDTYPE">
        <stop duration="1.00" arrival="411.00" arrivalPos="0.00" actType="waiting"/>
    </personinfo>
    <personinfo id="customer_132" depart="410.00" type="DEFAULT_PEDTYPE">
        <stop duration="1.00" arrival="411.00" arrivalPos="82.55" actType="waiting"/>
    </personinfo>
    <personinfo id="customer_127" depart="400.00" type="DEFAULT_PEDTYPE">
        <stop duration="13.00" arrival="413.00" arrivalPos="475.78" actType="waiting"/>
    </personinfo>
    <personinfo id="customer_136" depart="415.00" type="DEFAULT_PEDTYPE">
        <stop duration="1.00" arrival="416.00" arrivalPos="334.42" actType="waiting"/>
    </personinfo>
    <tripinfo id="driver_54" depart="245.00" departLane="4733554_0" departPos="5.10" departSpeed="0.00" departDelay="0.00" arrival="416.00" arrivalLane="-128904173#1_0" arrivalPos="24.64" arrivalSpeed="9.48" duration="171.00" routeLength="2120.57" waitingTime="0.00" waitingCount="0" stopTime="2.00" timeLoss="30.41" rerouteNo="1" devices="tripinfo_driver_54 person_driver_54" vType="DEFAULT_VEHTYPE" speedFactor="0.99" vaporized=""/>
    <personinfo id="customer_84" depart="295.00" type="DEFAULT_PEDTYPE">
        <stop duration="113.00" arrival="408.00" arrivalPos="0.00" actType="waiting"/>
        <ride waitingTime="3.00" vehicle="driver_54" depart="411.00" arrival="416.00" arrivalPos="24.64" duration="5.00" routeLength="24.46" timeLoss="3.76"/>
        <stop duration="1.00" arrival="417.00" arrivalPos="110.02" actType="waiting"/>
    </personinfo>
    <personinfo id="customer_68" depart="255.00" type="DEFAULT_PEDTYPE">
        <stop duration="58.00" arrival="313.00" arrivalPos="0.00" actType="waiting"/>
        <ride waitingTime="3.00" vehicle="driver_45" depart="316.00" arrival="413.00" arrivalPos="113.22" duration="97.00" routeLength="1013.25" timeLoss="14.22"/>
        <stop duration="5.00" arrival="418.00" arrivalPos="113.23" actType="waiting"/>
    </personinfo>
    <personinfo id="customer_139" depart="420.00" type="DEFAULT_PEDTYPE">
        <stop duration="1.00" arrival="421.00" arrivalPos="0.00" actType="waiting"/>
    </personinfo>
    <personinfo id="customer_137" depart="415.00" type="DEFAULT_PEDTYPE">
        <stop duration="8.00" arrival="423.00" arrivalPos="0.00" actType="waiting"/>
    </personinfo>
    <personinfo id="customer_141" depart="425.00" type="DEFAULT_PEDTYPE">
        <stop duration="1.00" arrival="426.00" arrivalPos="11.92" actType="waiting"/>
    </personinfo>
    <personinfo id="customer_142" depart="425.00" type="DEFAULT_PEDTYPE">
        <stop duration="1.00" arrival="426.00" arrivalPos="0.00" actType="waiting"/>
    </personinfo>
    <personinfo id="customer_134" depart="415.00" type="DEFAULT_PEDTYPE">
        <stop duration="12.00" arrival="427.00" arrivalPos="8.32" actType="waiting"/>
    </personinfo>
    <personinfo id="customer_126" depart="400.00" type="DEFAULT_PEDTYPE">
        <stop duration="28.00" arrival="428.00" arrivalPos="0.00" actType="waiting"/>
    </personinfo>
    <personinfo id="customer_69" depart="255.00" type="DEFAULT_PEDTYPE">
        <stop duration="104.00" arrival="359.00" arrivalPos="171.79" actType="waiting"/>
        <ride waitingTime="4.00" vehicle="driver_52" depart="363.00" arrival="425.00" arrivalPos="444.42" duration="62.00" routeLength="699.98" timeLoss="8.48"/>
        <stop duration="5.00" arrival="430.00" arrivalPos="444.43" actType="waiting"/>
    </personinfo>
    <personinfo id="customer_146" depart="430.00" type="DEFAULT_PEDTYPE">
        <stop duration="1.00" arrival="431.00" arrivalPos="28.79" actType="waiting"/>
    </personinfo>
    <personinfo id="customer_138" depart="420.00" type="DEFAULT_PEDTYPE">
        <stop duration="17.00" arrival="437.00" arrivalPos="512.10" actType="waiting"/>
    </personinfo>
    <tripinfo id="driver_84" depart="320.00" departLane="4587834#4_0" departPos="5.10" departSpeed="0.00" departDelay="0.00" arrival="437.00" arrivalLane="-4829595#2_0" arrivalPos="166.66" arrivalSpeed="13.68" duration="117.00" routeLength="1398.40" waitingTime="0.00" waitingCount="0" stopTime="0.00" timeLoss="16.64" rerouteNo="0" devices="tripinfo_driver_84" vType="DEFAULT_VEHTYPE" speedFactor="1.03" vaporized=""/>
    <personinfo id="customer_17" depart="85.00" type="DEFAULT_PEDTYPE">
        <stop duration="217.00" arrival="302.00" arrivalPos="0.00" actType="waiting"/>
        <ride waitingTime="2.00" vehicle="driver_9" depart="304.00" arrival="432.00" arrivalPos="101.98" duration="128.00" routeLength="986.54" timeLoss="16.78"/>
        <stop duration="5.00" arrival="437.00" arrivalPos="102.00" actType="waiting"/>
    </personinfo>
    <personinfo id="customer_144" depart="430.00" type="DEFAULT_PEDTYPE">
        <stop duration="8.00" arrival="438.00" arrivalPos="46.14" actType="waiting"/>
    </personinfo>
    <tripinfo id="driver_65" depart="275.00" departLane="-4813435#1_0" departPos="5.10" departSpeed="0.00" departDelay="0.00" arrival="438.00" arrivalLane="-226217472#1_0" arrivalPos="46.07" arrivalSpeed="13.89" duration="163.00" routeLength="1173.52" waitingTime="0.00" waitingCount="0" stopTime="0.00" timeLoss="23.02" rerouteNo="0" devices="tripinfo_driver_65" vType="DEFAULT_VEHTYPE" speedFactor="1.00" vaporized=""/>
    <personinfo id="customer_145" depart="430.00" type="DEFAULT_PEDTYPE">
        <stop duration="13.00" arrival="443.00" arrivalPos="0.61" actType="waiting"/>
    </personinfo>
    <personinfo id="customer_26" depart="120.00" type="DEFAULT_PEDTYPE">
        <stop duration="209.00" arrival="329.00" arrivalPos="69.26" actType="waiting"/>
        <ride waitingTime="3.00" vehicle="driver_15" depart="332.00" arrival="439.00" arrivalPos="28.09" duration="107.00" routeLength="908.41" timeLoss="15.28"/>
        <stop duration="5.00" arrival="444.00" arrivalPos="28.10" actType="waiting"/>
    </personinfo>
    <personinfo id="customer_149" depart="435.00" type="DEFAULT_PEDTYPE">
        <stop duration="10.00" arrival="445.00" arrivalPos="20.70" actType="waiting"/>
    </personinfo>