<?xml version="1.0" encoding="UTF-8"?>

<!-- generated on 2022-07-16 08:54:26 by Eclipse SUMO GUI Version 1.13.0
<configuration xmlns:xsi="http://www.w3.org/2001/XMLSchema-instance" xsi:noNamespaceSchemaLocation="http://sumo.dlr.de/xsd/sumoConfiguration.xsd">

    <input>
        <net-file value="net_config/schaffhausen.net.xml"/>
        <additional-files value="net_config/add.add.xml"/>
    </input>

    <output>
        <tripinfo-output value="net_config/tripinfo.xml"/>
    </output>

    <time>
        <step-length value="1"/>
    </time>

    <processing>
        <time-to-teleport value="0"/>
    </processing>

    <report>
        <log value="/Users/davidemolinelli/Documents/phd/repositories/ride-sharing-simulator/logfile.txt"/>
    </report>

    <traci_server>
        <remote-port value="62775"/>
    </traci_server>

    <gui_only>
        <gui-settings-file value="net_config/gui-settings.cfg"/>
        <tracker-interval value="1"/>
    </gui_only>

</configuration>
-->

<tripinfos xmlns:xsi="http://www.w3.org/2001/XMLSchema-instance" xsi:noNamespaceSchemaLocation="http://sumo.dlr.de/xsd/tripinfo_file.xsd">
    <tripinfo id="driver_2" depart="1.00" departLane="-4891534_0" departPos="5.10" departSpeed="0.00" departDelay="0.00" arrival="15.00" arrivalLane=":31814632_0_0" arrivalPos="3.51" arrivalSpeed="3.85" duration="14.00" routeLength="68.60" waitingTime="0.00" waitingCount="0" stopTime="0.00" timeLoss="2.87" rerouteNo="0" devices="tripinfo_driver_2" vType="DEFAULT_VEHTYPE" speedFactor="0.83" vaporized="traci"/>
