<?xml version="1.0" encoding="UTF-8"?>

<!-- generated on 2022-08-26 11:24:34 by Eclipse SUMO sumo Version 1.14.1
<configuration xmlns:xsi="http://www.w3.org/2001/XMLSchema-instance" xsi:noNamespaceSchemaLocation="http://sumo.dlr.de/xsd/sumoConfiguration.xsd">

    <input>
        <net-file value="net_config/san-francisco.net.xml"/>
        <additional-files value="net_config/add.add.xml"/>
    </input>

    <output>
        <tripinfo-output value="net_config/tripinfo.xml"/>
    </output>

    <time>
        <step-length value="1"/>
    </time>

    <processing>
        <time-to-teleport value="0"/>
    </processing>

    <traci_server>
        <remote-port value="52103"/>
    </traci_server>

    <gui_only>
        <gui-settings-file value="net_config/gui-settings.cfg"/>
    </gui_only>

</configuration>
-->

<tripinfos xmlns:xsi="http://www.w3.org/2001/XMLSchema-instance" xsi:noNamespaceSchemaLocation="http://sumo.dlr.de/xsd/tripinfo_file.xsd">
    <tripinfo id="driver_31" depart="4.00" departLane="-85644927_0" departPos="0.31" departSpeed="0.00" departDelay="0.00" arrival="8.00" arrivalLane="-35977367#8_0" arrivalPos="0.20" arrivalSpeed="9.47" duration="4.00" routeLength="15.88" waitingTime="0.00" waitingCount="0" stopTime="0.00" timeLoss="2.55" rerouteNo="0" devices="tripinfo_driver_31" vType="DEFAULT_VEHTYPE" speedFactor="1.17" vaporized=""/>
    <tripinfo id="driver_49" depart="6.00" departLane="772536172_0" departPos="5.10" departSpeed="0.00" departDelay="0.00" arrival="9.00" arrivalLane="772536172_1" arrivalPos="10.00" arrivalSpeed="3.11" duration="3.00" routeLength="4.90" waitingTime="0.00" waitingCount="0" stopTime="0.00" timeLoss="1.85" rerouteNo="0" devices="tripinfo_driver_49" vType="DEFAULT_VEHTYPE" speedFactor="1.17" vaporized="traci"/>
    <tripinfo id="driver_46" depart="6.00" departLane="513676834#0_0" departPos="5.10" departSpeed="0.00" departDelay="0.00" arrival="11.00" arrivalLane="513676834#0_0" arrivalPos="22.35" arrivalSpeed="6.82" duration="5.00" routeLength="17.25" waitingTime="0.00" waitingCount="0" stopTime="0.00" timeLoss="3.12" rerouteNo="0" devices="tripinfo_driver_46" vType="DEFAULT_VEHTYPE" speedFactor="0.88" vaporized="traci"/>
    <tripinfo id="driver_5" depart="1.00" departLane="133733590_0" departPos="0.16" departSpeed="0.00" departDelay="0.00" arrival="12.00" arrivalLane="204884387#1_0" arrivalPos="40.98" arrivalSpeed="17.00" duration="11.00" routeLength="84.42" waitingTime="1.00" waitingCount="1" stopTime="0.00" timeLoss="5.27" rerouteNo="0" devices="tripinfo_driver_5" vType="DEFAULT_VEHTYPE" speedFactor="0.89" vaporized="traci"/>
    <tripinfo id="driver_12" depart="2.00" departLane="-397146715#4_0" departPos="5.10" departSpeed="0.00" departDelay="0.00" arrival="12.00" arrivalLane="-397146715#1_0" arrivalPos="4.12" arrivalSpeed="16.88" duration="10.00" routeLength="86.35" waitingTime="0.00" waitingCount="0" stopTime="0.00" timeLoss="5.08" rerouteNo="0" devices="tripinfo_driver_12" vType="DEFAULT_VEHTYPE" speedFactor="0.99" vaporized="traci"/>
    <tripinfo id="driver_89" depart="12.00" departLane="27054209_0" departPos="5.10" departSpeed="0.00" departDelay="2.00" arrival="13.00" arrivalLane="27054209_0" arrivalPos="5.10" arrivalSpeed="0.00" duration="1.00" routeLength="0.00" waitingTime="0.00" waitingCount="0" stopTime="0.00" timeLoss="0.00" rerouteNo="0" devices="tripinfo_driver_89" vType="DEFAULT_VEHTYPE" speedFactor="0.83" vaporized="traci"/>
    <tripinfo id="driver_87" depart="9.00" departLane="397119705#1_0" departPos="5.10" departSpeed="0.00" departDelay="0.00" arrival="13.00" arrivalLane="397119705#1_0" arrivalPos="5.10" arrivalSpeed="0.00" duration="4.00" routeLength="0.00" waitingTime="3.00" waitingCount="1" stopTime="0.00" timeLoss="3.00" rerouteNo="0" devices="tripinfo_driver_87" vType="DEFAULT_VEHTYPE" speedFactor="1.02" vaporized="traci"/>
    <tripinfo id="driver_36" depart="4.00" departLane="1032777735_0" departPos="5.10" departSpeed="0.00" departDelay="0.00" arrival="14.00" arrivalLane="1032777735_0" arrivalPos="72.23" arrivalSpeed="9.62" duration="10.00" routeLength="67.13" waitingTime="0.00" waitingCount="0" stopTime="0.00" timeLoss="2.19" rerouteNo="0" devices="tripinfo_driver_36" vType="DEFAULT_VEHTYPE" speedFactor="1.10" vaporized="traci"/>
    <tripinfo id="driver_10" depart="1.00" departLane="-408591454#1_0" departPos="5.10" departSpeed="0.00" departDelay="0.00" arrival="16.00" arrivalLane="254759933#1_0" arrivalPos="44.93" arrivalSpeed="8.97" duration="15.00" routeLength="99.51" waitingTime="0.00" waitingCount="0" stopTime="0.00" timeLoss="3.13" rerouteNo="0" devices="tripinfo_driver_10" vType="DEFAULT_VEHTYPE" speedFactor="1.05" vaporized="traci"/>
    <tripinfo id="driver_45" depart="6.00" departLane="-30029878#11_0" departPos="5.10" departSpeed="0.00" departDelay="0.00" arrival="17.00" arrivalLane=":65334046_13_0" arrivalPos="9.53" arrivalSpeed="12.29" duration="11.00" routeLength="75.78" waitingTime="0.00" waitingCount="0" stopTime="0.00" timeLoss="2.89" rerouteNo="0" devices="tripinfo_driver_45" vType="DEFAULT_VEHTYPE" speedFactor="0.90" vaporized="traci"/>
    <tripinfo id="driver_40" depart="5.00" departLane="-8916490_0" departPos="5.10" departSpeed="0.00" departDelay="0.00" arrival="17.00" arrivalLane=":65328739_0_0" arrivalPos="6.37" arrivalSpeed="6.42" duration="12.00" routeLength="73.09" waitingTime="0.00" waitingCount="0" stopTime="0.00" timeLoss="4.77" rerouteNo="0" devices="tripinfo_driver_40" vType="DEFAULT_VEHTYPE" speedFactor="1.09" vaporized="traci"/>
    <tripinfo id="driver_88" depart="10.00" departLane="-8919609#1_0" departPos="5.10" departSpeed="0.00" departDelay="0.00" arrival="17.00" arrivalLane="-8919609#1_0" arrivalPos="51.93" arrivalSpeed="12.37" duration="7.00" routeLength="46.83" waitingTime="0.00" waitingCount="0" stopTime="0.00" timeLoss="2.22" rerouteNo="0" devices="tripinfo_driver_88" vType="DEFAULT_VEHTYPE" speedFactor="0.89" vaporized="traci"/>
    <tripinfo id="driver_47" depart="6.00" departLane="502795940#0_0" departPos="0.20" departSpeed="0.00" departDelay="0.00" arrival="18.00" arrivalLane="502795940#1_3" arrivalPos="90.36" arrivalSpeed="11.14" duration="12.00" routeLength="93.21" waitingTime="0.00" waitingCount="0" stopTime="0.00" timeLoss="2.83" rerouteNo="0" devices="tripinfo_driver_47" vType="DEFAULT_VEHTYPE" speedFactor="0.85" vaporized="traci"/>
    <tripinfo id="driver_15" depart="2.00" departLane="-254396709#2_0" departPos="0.20" departSpeed="0.00" departDelay="0.00" arrival="19.00" arrivalLane="-254396709#0_0" arrivalPos="0.96" arrivalSpeed="0.02" duration="17.00" routeLength="131.48" waitingTime="2.00" waitingCount="1" stopTime="0.00" timeLoss="9.72" rerouteNo="0" devices="tripinfo_driver_15" vType="DEFAULT_VEHTYPE" speedFactor="0.94" vaporized="traci"/>
    <tripinfo id="driver_19" depart="2.00" departLane="377646102_0" departPos="5.10" departSpeed="0.00" departDelay="0.00" arrival="19.00" arrivalLane="425516613#0_0" arrivalPos="32.05" arrivalSpeed="0.01" duration="17.00" routeLength="101.62" waitingTime="3.00" waitingCount="1" stopTime="0.00" timeLoss="11.47" rerouteNo="0" devices="tripinfo_driver_19" vType="DEFAULT_VEHTYPE" speedFactor="1.01" vaporized="traci"/>
    <tripinfo id="driver_44" depart="5.00" departLane="397150812_0" departPos="5.10" departSpeed="0.00" departDelay="0.00" arrival="19.00" arrivalLane="397150812_0" arrivalPos="97.72" arrivalSpeed="7.63" duration="14.00" routeLength="92.62" waitingTime="0.00" waitingCount="0" stopTime="0.00" timeLoss="2.61" rerouteNo="0" devices="tripinfo_driver_44" vType="DEFAULT_VEHTYPE" speedFactor="1.00" vaporized="traci"/>
    <tripinfo id="driver_54" depart="6.00" departLane="860937368_0" departPos="5.10" departSpeed="0.00" departDelay="0.00" arrival="19.00" arrivalLane="493107463#1_3" arrivalPos="0.27" arrivalSpeed="0.00" duration="13.00" routeLength="29.42" waitingTime="4.00" waitingCount="1" stopTime="0.00" timeLoss="9.07" rerouteNo="0" devices="tripinfo_driver_54" vType="DEFAULT_VEHTYPE" speedFactor="0.90" vaporized="traci"/>
    <tripinfo id="driver_55" depart="7.00" departLane="-48211062#4_0" departPos="5.10" departSpeed="0.00" departDelay="0.00" arrival="20.00" arrivalLane="-48211062#4_0" arrivalPos="117.58" arrivalSpeed="12.43" duration="13.00" routeLength="112.48" waitingTime="0.00" waitingCount="0" stopTime="0.00" timeLoss="4.09" rerouteNo="0" devices="tripinfo_driver_55" vType="DEFAULT_VEHTYPE" speedFactor="1.02" vaporized="traci"/>
    <tripinfo id="driver_56" depart="7.00" departLane="-23924508_0" departPos="5.10" departSpeed="0.00" departDelay="0.00" arrival="20.00" arrivalLane="-23924508_0" arrivalPos="122.50" arrivalSpeed="11.78" duration="13.00" routeLength="117.40" waitingTime="0.00" waitingCount="0" stopTime="0.00" timeLoss="3.28" rerouteNo="0" devices="tripinfo_driver_56" vType="DEFAULT_VEHTYPE" speedFactor="0.97" vaporized="traci"/>
    <tripinfo id="driver_6" depart="1.00" departLane="-184956229_0" departPos="5.10" departSpeed="0.00" departDelay="0.00" arrival="20.00" arrivalLane=":2936165726_1_1" arrivalPos="3.01" arrivalSpeed="4.44" duration="19.00" routeLength="170.83" waitingTime="0.00" waitingCount="0" stopTime="0.00" timeLoss="9.46" rerouteNo="0" devices="tripinfo_driver_6" vType="DEFAULT_VEHTYPE" speedFactor="0.94" vaporized="traci"/>
    <tripinfo id="driver_3" depart="1.00" departLane="-770522074#2_0" departPos="0.10" departSpeed="0.00" departDelay="0.00" arrival="21.00" arrivalLane="770522074#1_0" arrivalPos="74.09" arrivalSpeed="15.85" duration="20.00" routeLength="164.85" waitingTime="0.00" waitingCount="0" stopTime="0.00" timeLoss="9.32" rerouteNo="0" devices="tripinfo_driver_3" vType="DEFAULT_VEHTYPE" speedFactor="0.83" vaporized="traci"/>
    <tripinfo id="driver_33" depart="4.00" departLane="769489483#0_0" departPos="5.10" departSpeed="0.00" departDelay="0.00" arrival="21.00" arrivalLane="-769489484#0_0" arrivalPos="1.46" arrivalSpeed="3.42" duration="17.00" routeLength="135.33" waitingTime="0.00" waitingCount="0" stopTime="0.00" timeLoss="5.89" rerouteNo="1" devices="tripinfo_driver_33" vType="DEFAULT_VEHTYPE" speedFactor="1.02" vaporized="traci"/>
    <tripinfo id="driver_82" depart="9.00" departLane="425516617#11_0" departPos="5.10" departSpeed="0.00" departDelay="0.00" arrival="21.00" arrivalLane=":4759501869_0_0" arrivalPos="1.32" arrivalSpeed="10.15" duration="12.00" routeLength="119.43" waitingTime="0.00" waitingCount="0" stopTime="0.00" timeLoss="5.49" rerouteNo="0" devices="tripinfo_driver_82" vType="DEFAULT_VEHTYPE" speedFactor="0.98" vaporized="traci"/>
    <tripinfo id="driver_109" depart="11.00" departLane="417226858#2_0" departPos="5.10" departSpeed="0.00" departDelay="0.00" arrival="21.00" arrivalLane="417226858#3_0" arrivalPos="61.16" arrivalSpeed="8.58" duration="10.00" routeLength="63.18" waitingTime="0.00" waitingCount="0" stopTime="0.00" timeLoss="2.00" rerouteNo="0" devices="tripinfo_driver_109" vType="DEFAULT_VEHTYPE" speedFactor="1.01" vaporized="traci"/>
    <tripinfo id="driver_1" depart="1.00" departLane="721674320#0_0" departPos="5.10" departSpeed="0.00" departDelay="0.00" arrival="22.00" arrivalLane="-26938155#1_0" arrivalPos="1.11" arrivalSpeed="9.19" duration="21.00" routeLength="171.19" waitingTime="0.00" waitingCount="0" stopTime="0.00" timeLoss="10.28" rerouteNo="0" devices="tripinfo_driver_1" vType="DEFAULT_VEHTYPE" speedFactor="1.08" vaporized="traci"/>
    <tripinfo id="driver_7" depart="1.00" departLane="968937453_0" departPos="5.10" departSpeed="0.00" departDelay="0.00" arrival="22.00" arrivalLane=":65303552_1_2" arrivalPos="5.59" arrivalSpeed="6.67" duration="21.00" routeLength="131.06" waitingTime="0.00" waitingCount="0" stopTime="0.00" timeLoss="2.89" rerouteNo="0" devices="tripinfo_driver_7" vType="DEFAULT_VEHTYPE" speedFactor="0.86" vaporized="traci"/>
    <tripinfo id="driver_99" depart="11.00" departLane="30030433_0" departPos="5.10" departSpeed="0.00" departDelay="0.00" arrival="22.00" arrivalLane=":4166436899_10_0" arrivalPos="7.57" arrivalSpeed="5.37" duration="11.00" routeLength="58.89" waitingTime="0.00" waitingCount="0" stopTime="0.00" timeLoss="3.63" rerouteNo="0" devices="tripinfo_driver_99" vType="DEFAULT_VEHTYPE" speedFactor="0.95" vaporized="traci"/>
    <tripinfo id="driver_8" depart="1.00" departLane="-204884397#1_0" departPos="5.10" departSpeed="0.00" departDelay="0.00" arrival="23.00" arrivalLane=":1723738990_19_0" arrivalPos="0.10" arrivalSpeed="4.56" duration="22.00" routeLength="78.30" waitingTime="7.00" waitingCount="1" stopTime="0.00" timeLoss="13.29" rerouteNo="0" devices="tripinfo_driver_8" vType="DEFAULT_VEHTYPE" speedFactor="1.09" vaporized="traci"/>
    <tripinfo id="driver_28" depart="4.00" departLane="-30025866#0_0" departPos="5.10" departSpeed="0.00" departDelay="0.00" arrival="23.00" arrivalLane="30025866#0_0" arrivalPos="3.94" arrivalSpeed="14.25" duration="19.00" routeLength="145.69" waitingTime="0.00" waitingCount="0" stopTime="0.00" timeLoss="8.49" rerouteNo="0" devices="tripinfo_driver_28" vType="DEFAULT_VEHTYPE" speedFactor="1.18" vaporized="traci"/>
    <tripinfo id="driver_39" depart="4.00" departLane="-30832504_0" departPos="5.10" departSpeed="0.00" departDelay="0.00" arrival="23.00" arrivalLane="1050261012_2" arrivalPos="8.71" arrivalSpeed="7.11" duration="19.00" routeLength="124.38" waitingTime="0.00" waitingCount="0" stopTime="0.00" timeLoss="10.24" rerouteNo="0" devices="tripinfo_driver_39" vType="DEFAULT_VEHTYPE" speedFactor="0.96" vaporized="traci"/>
    <tripinfo id="driver_114" depart="18.00" departLane="111560680#1_0" departPos="5.10" departSpeed="0.00" departDelay="0.00" arrival="23.00" arrivalLane="111560680#1_0" arrivalPos="22.62" arrivalSpeed="7.62" duration="5.00" routeLength="17.52" waitingTime="0.00" waitingCount="0" stopTime="0.00" timeLoss="3.41" rerouteNo="0" devices="tripinfo_driver_114" vType="DEFAULT_VEHTYPE" speedFactor="1.07" vaporized="traci"/>
    <tripinfo id="driver_4" depart="1.00" departLane="-945294697_0" departPos="5.10" departSpeed="0.00" departDelay="0.00" arrival="24.00" arrivalLane="706543478#1_1" arrivalPos="49.29" arrivalSpeed="14.91" duration="23.00" routeLength="221.02" waitingTime="0.00" waitingCount="0" stopTime="0.00" timeLoss="11.69" rerouteNo="0" devices="tripinfo_driver_4" vType="DEFAULT_VEHTYPE" speedFactor="1.05" vaporized="traci"/>
    <tripinfo id="driver_41" depart="5.00" departLane="-87297164#5_0" departPos="5.10" departSpeed="0.00" departDelay="0.00" arrival="24.00" arrivalLane=":65312672_8_0" arrivalPos="5.76" arrivalSpeed="6.03" duration="19.00" routeLength="180.71" waitingTime="0.00" waitingCount="0" stopTime="0.00" timeLoss="8.33" rerouteNo="0" devices="tripinfo_driver_41" vType="DEFAULT_VEHTYPE" speedFactor="1.04" vaporized="traci"/>
    <tripinfo id="driver_27" depart="4.00" departLane="-331111652#2_0" departPos="5.10" departSpeed="0.00" departDelay="0.00" arrival="24.00" arrivalLane="30029878#3_0" arrivalPos="32.31" arrivalSpeed="12.52" duration="20.00" routeLength="168.41" waitingTime="0.00" waitingCount="0" stopTime="0.00" timeLoss="5.52" rerouteNo="0" devices="tripinfo_driver_27" vType="DEFAULT_VEHTYPE" speedFactor="0.93" vaporized="traci"/>
    <tripinfo id="driver_43" depart="5.00" departLane="721174655_0" departPos="5.10" departSpeed="0.00" departDelay="0.00" arrival="25.00" arrivalLane="721174655_2" arrivalPos="41.81" arrivalSpeed="0.00" duration="20.00" routeLength="36.71" waitingTime="11.00" waitingCount="1" stopTime="0.00" timeLoss="17.48" rerouteNo="0" devices="tripinfo_driver_43" vType="DEFAULT_VEHTYPE" speedFactor="1.09" vaporized="traci"/>
    <tripinfo id="driver_60" depart="7.00" departLane="406944779#1_0" departPos="3.77" departSpeed="0.00" departDelay="0.00" arrival="25.00" arrivalLane="406944779#1_3" arrivalPos="3.77" arrivalSpeed="0.00" duration="18.00" routeLength="0.00" waitingTime="17.00" waitingCount="1" stopTime="0.00" timeLoss="17.00" rerouteNo="0" devices="tripinfo_driver_60" vType="DEFAULT_VEHTYPE" speedFactor="0.99" vaporized="traci"/>
    <tripinfo id="driver_84" depart="9.00" departLane="225806055_0" departPos="5.10" departSpeed="0.00" departDelay="0.00" arrival="25.00" arrivalLane="934194966#1_0" arrivalPos="2.33" arrivalSpeed="0.00" duration="16.00" routeLength="91.54" waitingTime="1.00" waitingCount="1" stopTime="0.00" timeLoss="11.05" rerouteNo="0" devices="tripinfo_driver_84" vType="DEFAULT_VEHTYPE" speedFactor="1.04" vaporized="traci"/>
    <tripinfo id="driver_32" depart="4.00" departLane="-27166421#3_0" departPos="5.10" departSpeed="0.00" departDelay="0.00" arrival="26.00" arrivalLane="425516617#4_0" arrivalPos="13.17" arrivalSpeed="8.22" duration="22.00" routeLength="202.53" waitingTime="0.00" waitingCount="0" stopTime="0.00" timeLoss="5.79" rerouteNo="0" devices="tripinfo_driver_32" vType="DEFAULT_VEHTYPE" speedFactor="0.99" vaporized="traci"/>
    <tripinfo id="driver_58" depart="7.00" departLane="-1020512097#1_0" departPos="1.88" departSpeed="0.00" departDelay="0.00" arrival="26.00" arrivalLane="1020512097#1_0" arrivalPos="0.88" arrivalSpeed="0.02" duration="19.00" routeLength="81.09" waitingTime="2.00" waitingCount="1" stopTime="0.00" timeLoss="10.99" rerouteNo="0" devices="tripinfo_driver_58" vType="DEFAULT_VEHTYPE" speedFactor="1.12" vaporized="traci"/>
    <tripinfo id="driver_108" depart="11.00" departLane="-88572932#1_0" departPos="5.10" departSpeed="0.00" departDelay="0.00" arrival="26.00" arrivalLane="-88572932#0_0" arrivalPos="20.35" arrivalSpeed="23.50" duration="15.00" routeLength="200.26" waitingTime="0.00" waitingCount="0" stopTime="0.00" timeLoss="7.44" rerouteNo="0" devices="tripinfo_driver_108" vType="DEFAULT_VEHTYPE" speedFactor="1.10" vaporized="traci"/>
    <tripinfo id="driver_59" depart="7.00" departLane="780006784#0_0" departPos="0.38" departSpeed="0.00" departDelay="0.00" arrival="26.00" arrivalLane="598020856#0_1" arrivalPos="1.66" arrivalSpeed="15.76" duration="19.00" routeLength="210.06" waitingTime="0.00" waitingCount="0" stopTime="0.00" timeLoss="4.09" rerouteNo="0" devices="tripinfo_driver_59" vType="DEFAULT_VEHTYPE" speedFactor="1.02" vaporized=""/>
    <tripinfo id="driver_73" depart="8.00" departLane="144489134#1_0" departPos="5.10" departSpeed="0.00" departDelay="0.00" arrival="27.00" arrivalLane="144489134#1_1" arrivalPos="120.70" arrivalSpeed="0.00" duration="19.00" routeLength="115.60" waitingTime="5.00" waitingCount="1" stopTime="0.00" timeLoss="13.97" rerouteNo="0" devices="tripinfo_driver_73" vType="DEFAULT_VEHTYPE" speedFactor="1.03" vaporized="traci"/>
    <tripinfo id="driver_110" depart="17.00" departLane="-288065247#1_0" departPos="5.10" departSpeed="0.00" departDelay="0.00" arrival="27.00" arrivalLane="399142440#3_0" arrivalPos="0.02" arrivalSpeed="6.45" duration="10.00" routeLength="58.93" waitingTime="0.00" waitingCount="0" stopTime="0.00" timeLoss="3.65" rerouteNo="0" devices="tripinfo_driver_110" vType="DEFAULT_VEHTYPE" speedFactor="0.92" vaporized="traci"/>
    <tripinfo id="driver_51" depart="6.00" departLane="-88597577#1_0" departPos="5.10" departSpeed="0.00" departDelay="0.00" arrival="27.00" arrivalLane="-88572965#2_1" arrivalPos="0.23" arrivalSpeed="20.86" duration="21.00" routeLength="217.28" waitingTime="0.00" waitingCount="0" stopTime="0.00" timeLoss="11.05" rerouteNo="0" devices="tripinfo_driver_51" vType="DEFAULT_VEHTYPE" speedFactor="1.10" vaporized=""/>
    <tripinfo id="driver_83" depart="9.00" departLane="-254758120#1_0" departPos="5.10" departSpeed="0.00" departDelay="0.00" arrival="28.00" arrivalLane=":65333831_13_0" arrivalPos="0.33" arrivalSpeed="2.65" duration="19.00" routeLength="125.68" waitingTime="0.00" waitingCount="0" stopTime="0.00" timeLoss="3.54" rerouteNo="0" devices="tripinfo_driver_83" vType="DEFAULT_VEHTYPE" speedFactor="1.00" vaporized="traci"/>
    <tripinfo id="driver_115" depart="20.00" departLane="27166444#0_0" departPos="5.10" departSpeed="0.00" departDelay="0.00" arrival="28.00" arrivalLane="27166444#0_2" arrivalPos="59.56" arrivalSpeed="12.91" duration="8.00" routeLength="54.46" waitingTime="0.00" waitingCount="0" stopTime="0.00" timeLoss="4.92" rerouteNo="0" devices="tripinfo_driver_115" vType="DEFAULT_VEHTYPE" speedFactor="0.94" vaporized="traci"/>
    <tripinfo id="driver_17" depart="2.00" departLane="1032777737_0" departPos="5.10" departSpeed="0.00" departDelay="0.00" arrival="30.00" arrivalLane="1032777739#0_0" arrivalPos="5.89" arrivalSpeed="0.00" duration="28.00" routeLength="123.01" waitingTime="10.00" waitingCount="1" stopTime="0.00" timeLoss="15.12" rerouteNo="0" devices="tripinfo_driver_17" vType="DEFAULT_VEHTYPE" speedFactor="1.16" vaporized="traci"/>
    <tripinfo id="driver_61" depart="7.00" departLane="254297761#0_0" departPos="0.20" departSpeed="0.00" departDelay="0.00" arrival="30.00" arrivalLane="254297761#1_1" arrivalPos="85.34" arrivalSpeed="0.00" duration="23.00" routeLength="86.42" waitingTime="7.00" waitingCount="1" stopTime="0.00" timeLoss="11.69" rerouteNo="1" devices="tripinfo_driver_61" vType="DEFAULT_VEHTYPE" speedFactor="0.94" vaporized="traci"/>
    <tripinfo id="driver_91" depart="10.00" departLane="-224384018#1_0" departPos="4.34" departSpeed="0.00" departDelay="0.00" arrival="30.00" arrivalLane="224384019#2_0" arrivalPos="2.50" arrivalSpeed="4.78" duration="20.00" routeLength="183.31" waitingTime="0.00" waitingCount="0" stopTime="0.00" timeLoss="7.75" rerouteNo="0" devices="tripinfo_driver_91" vType="DEFAULT_VEHTYPE" speedFactor="1.09" vaporized="traci"/>
    <tripinfo id="driver_92" depart="10.00" departLane="674757879#2_0" departPos="1.04" departSpeed="0.00" departDelay="0.00" arrival="30.00" arrivalLane="968937451#1_1" arrivalPos="50.72" arrivalSpeed="8.26" duration="20.00" routeLength="208.23" waitingTime="0.00" waitingCount="0" stopTime="0.00" timeLoss="5.54" rerouteNo="1" devices="tripinfo_driver_92" vType="DEFAULT_VEHTYPE" speedFactor="1.06" vaporized="traci"/>
    <tripinfo id="driver_93" depart="10.00" departLane="144489134#0_0" departPos="0.20" departSpeed="0.00" departDelay="0.00" arrival="30.00" arrivalLane="144489134#1_1" arrivalPos="120.22" arrivalSpeed="1.00" duration="20.00" routeLength="120.32" waitingTime="2.00" waitingCount="1" stopTime="0.00" timeLoss="14.71" rerouteNo="0" devices="tripinfo_driver_93" vType="DEFAULT_VEHTYPE" speedFactor="1.01" vaporized="traci"/>
    <tripinfo id="driver_77" depart="9.00" departLane="-30029708#0_0" departPos="5.10" departSpeed="0.00" departDelay="0.00" arrival="31.00" arrivalLane="8917692_0" arrivalPos="46.88" arrivalSpeed="13.23" duration="22.00" routeLength="210.15" waitingTime="0.00" waitingCount="0" stopTime="0.00" timeLoss="4.61" rerouteNo="0" devices="tripinfo_driver_77" vType="DEFAULT_VEHTYPE" speedFactor="1.03" vaporized="traci"/>
    <tripinfo id="driver_86" depart="9.00" departLane="-619979105#0_0" departPos="5.10" departSpeed="0.00" departDelay="0.00" arrival="31.00" arrivalLane="619979105#1_0" arrivalPos="3.54" arrivalSpeed="0.00" duration="22.00" routeLength="100.43" waitingTime="5.00" waitingCount="1" stopTime="0.00" timeLoss="15.32" rerouteNo="0" devices="tripinfo_driver_86" vType="DEFAULT_VEHTYPE" speedFactor="1.02" vaporized="traci"/>
    <tripinfo id="driver_62" depart="7.00" departLane="-111586254_0" departPos="5.10" departSpeed="0.00" departDelay="0.00" arrival="32.00" arrivalLane="28841120_2" arrivalPos="11.81" arrivalSpeed="7.79" duration="25.00" routeLength="168.30" waitingTime="0.00" waitingCount="0" stopTime="0.00" timeLoss="8.64" rerouteNo="0" devices="tripinfo_driver_62" vType="DEFAULT_VEHTYPE" speedFactor="0.88" vaporized="traci"/>
    <tripinfo id="driver_106" depart="11.00" departLane="224316514_0" departPos="5.10" departSpeed="0.00" departDelay="0.00" arrival="32.00" arrivalLane="779123575#0_1" arrivalPos="10.60" arrivalSpeed="14.85" duration="21.00" routeLength="187.98" waitingTime="0.00" waitingCount="0" stopTime="0.00" timeLoss="6.95" rerouteNo="0" devices="tripinfo_driver_106" vType="DEFAULT_VEHTYPE" speedFactor="0.93" vaporized="traci"/>
    <tripinfo id="driver_63" depart="7.00" departLane="-365816000#0_0" departPos="5.10" departSpeed="0.00" departDelay="0.00" arrival="32.00" arrivalLane="-365816000#1_0" arrivalPos="0.20" arrivalSpeed="2.69" duration="25.00" routeLength="116.34" waitingTime="4.00" waitingCount="1" stopTime="0.00" timeLoss="17.05" rerouteNo="0" devices="tripinfo_driver_63" vType="DEFAULT_VEHTYPE" speedFactor="0.91" vaporized=""/>
    <tripinfo id="driver_68" depart="8.00" departLane="-26938155#1_0" departPos="5.10" departSpeed="0.00" departDelay="0.00" arrival="33.00" arrivalLane=":4019577214_1_0" arrivalPos="1.01" arrivalSpeed="0.00" duration="25.00" routeLength="72.00" waitingTime="12.00" waitingCount="1" stopTime="0.00" timeLoss="20.67" rerouteNo="0" devices="tripinfo_driver_68" vType="DEFAULT_VEHTYPE" speedFactor="0.97" vaporized="traci"/>
    <tripinfo id="driver_75" depart="9.00" departLane="-87376691#5_0" departPos="5.10" departSpeed="0.00" departDelay="0.00" arrival="33.00" arrivalLane=":65312680_3_0" arrivalPos="7.60" arrivalSpeed="10.50" duration="24.00" routeLength="225.80" waitingTime="0.00" waitingCount="0" stopTime="0.00" timeLoss="6.77" rerouteNo="1" devices="tripinfo_driver_75" vType="DEFAULT_VEHTYPE" speedFactor="1.01" vaporized="traci"/>
    <tripinfo id="driver_30" depart="4.00" departLane="-399215884#0_0" departPos="5.10" departSpeed="0.00" departDelay="0.00" arrival="34.00" arrivalLane="399215884#1_0" arrivalPos="11.85" arrivalSpeed="13.36" duration="30.00" routeLength="278.74" waitingTime="0.00" waitingCount="0" stopTime="0.00" timeLoss="7.81" rerouteNo="0" devices="tripinfo_driver_30" vType="DEFAULT_VEHTYPE" speedFactor="1.01" vaporized="traci"/>
    <tripinfo id="driver_67" depart="8.00" departLane="-27570786#1_0" departPos="5.10" departSpeed="0.00" departDelay="0.00" arrival="34.00" arrivalLane="399163466#1_0" arrivalPos="2.99" arrivalSpeed="0.19" duration="26.00" routeLength="225.59" waitingTime="0.00" waitingCount="0" stopTime="0.00" timeLoss="8.14" rerouteNo="0" devices="tripinfo_driver_67" vType="DEFAULT_VEHTYPE" speedFactor="1.02" vaporized="traci"/>
    <tripinfo id="driver_79" depart="9.00" departLane="91182060_0" departPos="5.10" departSpeed="0.00" departDelay="0.00" arrival="34.00" arrivalLane="425516645_0" arrivalPos="41.04" arrivalSpeed="0.03" duration="25.00" routeLength="212.01" waitingTime="1.00" waitingCount="1" stopTime="0.00" timeLoss="14.09" rerouteNo="0" devices="tripinfo_driver_79" vType="DEFAULT_VEHTYPE" speedFactor="1.02" vaporized="traci"/>
    <tripinfo id="driver_118" depart="28.00" departLane="111560680#0_0" departPos="2.77" departSpeed="0.00" departDelay="0.00" arrival="34.00" arrivalLane="111560680#1_0" arrivalPos="30.20" arrivalSpeed="10.44" duration="6.00" routeLength="30.50" waitingTime="0.00" waitingCount="0" stopTime="0.00" timeLoss="3.97" rerouteNo="0" devices="tripinfo_driver_118" vType="DEFAULT_VEHTYPE" speedFactor="1.06" vaporized="traci"/>
    <tripinfo id="driver_14" depart="2.00" departLane="-25372358#0_0" departPos="1.36" departSpeed="0.00" departDelay="0.00" arrival="35.00" arrivalLane="27054205#1_3" arrivalPos="17.02" arrivalSpeed="7.88" duration="33.00" routeLength="167.08" waitingTime="13.00" waitingCount="1" stopTime="0.00" timeLoss="22.11" rerouteNo="0" devices="tripinfo_driver_14" vType="DEFAULT_VEHTYPE" speedFactor="0.88" vaporized="traci"/>
    <tripinfo id="driver_25" depart="3.00" departLane="-512523366#0_0" departPos="0.20" departSpeed="0.00" departDelay="0.00" arrival="35.00" arrivalLane="84734271#0_2" arrivalPos="43.04" arrivalSpeed="8.16" duration="32.00" routeLength="302.49" waitingTime="0.00" waitingCount="0" stopTime="0.00" timeLoss="9.19" rerouteNo="0" devices="tripinfo_driver_25" vType="DEFAULT_VEHTYPE" speedFactor="0.95" vaporized="traci"/>
    <tripinfo id="driver_13" depart="2.00" departLane="-26938418#4_0" departPos="5.10" departSpeed="0.00" departDelay="0.00" arrival="36.00" arrivalLane="30035682#0_0" arrivalPos="107.80" arrivalSpeed="12.46" duration="34.00" routeLength="296.08" waitingTime="0.00" waitingCount="0" stopTime="0.00" timeLoss="12.73" rerouteNo="0" devices="tripinfo_driver_13" vType="DEFAULT_VEHTYPE" speedFactor="0.93" vaporized="traci"/>
    <tripinfo id="driver_107" depart="11.00" departLane="397135729#3_0" departPos="5.10" departSpeed="0.00" departDelay="0.00" arrival="36.00" arrivalLane="397135729#3_0" arrivalPos="84.13" arrivalSpeed="0.00" duration="25.00" routeLength="79.03" waitingTime="14.00" waitingCount="1" stopTime="0.00" timeLoss="20.72" rerouteNo="0" devices="tripinfo_driver_107" vType="DEFAULT_VEHTYPE" speedFactor="0.87" vaporized="traci"/>
    <tripinfo id="driver_97" depart="11.00" departLane="425516649#1_0" departPos="4.29" departSpeed="0.00" departDelay="0.00" arrival="37.00" arrivalLane="425516649#1_0" arrivalPos="4.29" arrivalSpeed="0.00" duration="26.00" routeLength="0.00" waitingTime="25.00" waitingCount="1" stopTime="0.00" timeLoss="25.00" rerouteNo="0" devices="tripinfo_driver_97" vType="DEFAULT_VEHTYPE" speedFactor="1.06" vaporized="traci"/>
    <tripinfo id="driver_113" depart="18.00" departLane="-399215884#1_0" departPos="5.10" departSpeed="0.00" departDelay="0.00" arrival="37.00" arrivalLane="399215884#1_0" arrivalPos="7.62" arrivalSpeed="5.57" duration="19.00" routeLength="115.17" waitingTime="1.00" waitingCount="1" stopTime="0.00" timeLoss="8.87" rerouteNo="0" devices="tripinfo_driver_113" vType="DEFAULT_VEHTYPE" speedFactor="0.99" vaporized="traci"/>
    <tripinfo id="driver_78" depart="9.00" departLane="-399156531#4_0" departPos="5.10" departSpeed="0.00" departDelay="0.00" arrival="38.00" arrivalLane="399156531#6_0" arrivalPos="55.39" arrivalSpeed="21.18" duration="29.00" routeLength="366.08" waitingTime="0.00" waitingCount="0" stopTime="0.00" timeLoss="10.89" rerouteNo="0" devices="tripinfo_driver_78" vType="DEFAULT_VEHTYPE" speedFactor="1.00" vaporized="traci"/>