<?xml version="1.0" encoding="UTF-8"?>

<!-- generated on 2022-08-26 14:23:05 by Eclipse SUMO sumo Version 1.14.1
<configuration xmlns:xsi="http://www.w3.org/2001/XMLSchema-instance" xsi:noNamespaceSchemaLocation="http://sumo.dlr.de/xsd/sumoConfiguration.xsd">

    <input>
        <net-file value="net_config/san-francisco.net.xml"/>
        <additional-files value="net_config/add.add.xml"/>
    </input>

    <output>
        <tripinfo-output value="net_config/tripinfo.xml"/>
    </output>

    <time>
        <step-length value="1"/>
    </time>

    <processing>
        <time-to-teleport value="0"/>
    </processing>

    <traci_server>
        <remote-port value="54070"/>
    </traci_server>

    <gui_only>
        <gui-settings-file value="net_config/gui-settings.cfg"/>
    </gui_only>

</configuration>
-->

<tripinfos xmlns:xsi="http://www.w3.org/2001/XMLSchema-instance" xsi:noNamespaceSchemaLocation="http://sumo.dlr.de/xsd/tripinfo_file.xsd">
    <tripinfo id="driver_11" depart="2.00" departLane="-588340584_0" departPos="5.10" departSpeed="0.00" departDelay="0.00" arrival="5.00" arrivalLane="-588340584_0" arrivalPos="9.61" arrivalSpeed="2.98" duration="3.00" routeLength="4.51" waitingTime="0.00" waitingCount="0" stopTime="0.00" timeLoss="1.71" rerouteNo="0" devices="tripinfo_driver_11" vType="DEFAULT_VEHTYPE" speedFactor="1.12" vaporized="traci"/>
    <tripinfo id="driver_14" depart="2.00" departLane="-417099350_0" departPos="5.10" departSpeed="0.00" departDelay="0.00" arrival="6.00" arrivalLane="-417099350_0" arrivalPos="14.30" arrivalSpeed="4.93" duration="4.00" routeLength="9.20" waitingTime="0.00" waitingCount="0" stopTime="0.00" timeLoss="2.53" rerouteNo="0" devices="tripinfo_driver_14" vType="DEFAULT_VEHTYPE" speedFactor="0.88" vaporized="traci"/>
    <tripinfo id="driver_26" depart="3.00" departLane="133733593#0_0" departPos="0.20" departSpeed="0.00" departDelay="0.00" arrival="7.00" arrivalLane="133733593#1_0" arrivalPos="14.46" arrivalSpeed="7.21" duration="4.00" routeLength="14.81" waitingTime="0.00" waitingCount="0" stopTime="0.00" timeLoss="2.41" rerouteNo="0" devices="tripinfo_driver_26" vType="DEFAULT_VEHTYPE" speedFactor="1.13" vaporized="traci"/>
    <tripinfo id="driver_29" depart="3.00" departLane="-297445459_0" departPos="5.10" departSpeed="0.00" departDelay="0.00" arrival="7.00" arrivalLane="-297445459_0" arrivalPos="16.14" arrivalSpeed="5.49" duration="4.00" routeLength="11.04" waitingTime="0.00" waitingCount="0" stopTime="0.00" timeLoss="1.93" rerouteNo="0" devices="tripinfo_driver_29" vType="DEFAULT_VEHTYPE" speedFactor="1.15" vaporized="traci"/>
    <tripinfo id="driver_37" depart="4.00" departLane="-212214144#2_0" departPos="5.10" departSpeed="0.00" departDelay="0.00" arrival="7.00" arrivalLane="-212214144#2_0" arrivalPos="10.71" arrivalSpeed="3.47" duration="3.00" routeLength="5.61" waitingTime="0.00" waitingCount="0" stopTime="0.00" timeLoss="1.44" rerouteNo="0" devices="tripinfo_driver_37" vType="DEFAULT_VEHTYPE" speedFactor="0.90" vaporized="traci"/>
    <tripinfo id="driver_31" depart="3.00" departLane="-122498865_0" departPos="5.10" departSpeed="0.00" departDelay="0.00" arrival="8.00" arrivalLane="-122498865_0" arrivalPos="25.70" arrivalSpeed="8.23" duration="5.00" routeLength="20.60" waitingTime="0.00" waitingCount="0" stopTime="0.00" timeLoss="2.73" rerouteNo="0" devices="tripinfo_driver_31" vType="DEFAULT_VEHTYPE" speedFactor="1.17" vaporized="traci"/>
    <tripinfo id="driver_6" depart="1.00" departLane="254758125#0_0" departPos="0.36" departSpeed="0.00" departDelay="0.00" arrival="11.00" arrivalLane="254758125#1_0" arrivalPos="58.23" arrivalSpeed="7.53" duration="10.00" routeLength="58.53" waitingTime="0.00" waitingCount="0" stopTime="0.00" timeLoss="2.02" rerouteNo="0" devices="tripinfo_driver_6" vType="DEFAULT_VEHTYPE" speedFactor="0.94" vaporized="traci"/>
    <tripinfo id="driver_56" depart="6.00" departLane="27054209_0" departPos="5.10" departSpeed="0.00" departDelay="0.00" arrival="11.00" arrivalLane="27054209_0" arrivalPos="22.94" arrivalSpeed="7.03" duration="5.00" routeLength="17.84" waitingTime="0.00" waitingCount="0" stopTime="0.00" timeLoss="3.22" rerouteNo="0" devices="tripinfo_driver_56" vType="DEFAULT_VEHTYPE" speedFactor="1.02" vaporized="traci"/>
    <tripinfo id="driver_98" depart="11.00" departLane="-225847532_0" departPos="5.10" departSpeed="0.00" departDelay="1.00" arrival="12.00" arrivalLane="-225847532_0" arrivalPos="5.10" arrivalSpeed="0.00" duration="1.00" routeLength="0.00" waitingTime="0.00" waitingCount="0" stopTime="0.00" timeLoss="0.00" rerouteNo="0" devices="tripinfo_driver_98" vType="DEFAULT_VEHTYPE" speedFactor="0.96" vaporized="traci"/>
    <tripinfo id="driver_83" depart="12.00" departLane="144489134#2_0" departPos="5.10" departSpeed="0.00" departDelay="4.00" arrival="13.00" arrivalLane="144489134#2_0" arrivalPos="5.10" arrivalSpeed="0.00" duration="1.00" routeLength="0.00" waitingTime="0.00" waitingCount="0" stopTime="0.00" timeLoss="0.00" rerouteNo="0" devices="tripinfo_driver_83" vType="DEFAULT_VEHTYPE" speedFactor="1.00" vaporized="traci"/>
    <tripinfo id="driver_10" depart="2.00" departLane="87297164#2_0" departPos="5.10" departSpeed="0.00" departDelay="0.00" arrival="15.00" arrivalLane=":65296947_7_0" arrivalPos="10.12" arrivalSpeed="23.08" duration="13.00" routeLength="149.07" waitingTime="0.00" waitingCount="0" stopTime="0.00" timeLoss="5.59" rerouteNo="0" devices="tripinfo_driver_10" vType="DEFAULT_VEHTYPE" speedFactor="1.05" vaporized="traci"/>
    <tripinfo id="driver_18" depart="2.00" departLane="-781828829#1_0" departPos="4.93" departSpeed="0.00" departDelay="0.00" arrival="15.00" arrivalLane=":3999644793_3_0" arrivalPos="5.59" arrivalSpeed="7.09" duration="13.00" routeLength="82.99" waitingTime="0.00" waitingCount="0" stopTime="0.00" timeLoss="2.88" rerouteNo="0" devices="tripinfo_driver_18" vType="DEFAULT_VEHTYPE" speedFactor="1.02" vaporized="traci"/>
    <tripinfo id="driver_45" depart="5.00" departLane="-254971068#1_0" departPos="5.10" departSpeed="0.00" departDelay="0.00" arrival="15.00" arrivalLane="-254971068#1_0" arrivalPos="84.14" arrivalSpeed="10.57" duration="10.00" routeLength="79.04" waitingTime="0.00" waitingCount="0" stopTime="0.00" timeLoss="5.05" rerouteNo="0" devices="tripinfo_driver_45" vType="DEFAULT_VEHTYPE" speedFactor="0.90" vaporized="traci"/>
    <tripinfo id="driver_58" depart="6.00" departLane="-287958606#2_0" departPos="0.20" departSpeed="0.00" departDelay="0.00" arrival="15.00" arrivalLane="-287958606#1_0" arrivalPos="69.45" arrivalSpeed="16.64" duration="9.00" routeLength="70.20" waitingTime="0.00" waitingCount="0" stopTime="0.00" timeLoss="5.08" rerouteNo="0" devices="tripinfo_driver_58" vType="DEFAULT_VEHTYPE" speedFactor="1.08" vaporized="traci"/>
    <tripinfo id="driver_61" depart="6.00" departLane="-736359897#1_0" departPos="3.70" departSpeed="0.00" departDelay="0.00" arrival="15.00" arrivalLane="-88559691#3_0" arrivalPos="14.38" arrivalSpeed="17.31" duration="9.00" routeLength="74.57" waitingTime="0.00" waitingCount="0" stopTime="0.00" timeLoss="4.60" rerouteNo="0" devices="tripinfo_driver_61" vType="DEFAULT_VEHTYPE" speedFactor="0.99" vaporized="traci"/>
    <tripinfo id="driver_21" depart="3.00" departLane="-254758127#5_0" departPos="5.10" departSpeed="0.00" departDelay="0.00" arrival="16.00" arrivalLane="-254758127#3_0" arrivalPos="8.76" arrivalSpeed="12.16" duration="13.00" routeLength="108.15" waitingTime="0.00" waitingCount="0" stopTime="0.00" timeLoss="3.25" rerouteNo="1" devices="tripinfo_driver_21" vType="DEFAULT_VEHTYPE" speedFactor="0.89" vaporized="traci"/>
    <tripinfo id="driver_32" depart="3.00" departLane="468552082#1_0" departPos="5.10" departSpeed="0.00" departDelay="0.00" arrival="16.00" arrivalLane="468552082#1_0" arrivalPos="89.66" arrivalSpeed="8.28" duration="13.00" routeLength="84.56" waitingTime="0.00" waitingCount="0" stopTime="0.00" timeLoss="2.49" rerouteNo="0" devices="tripinfo_driver_32" vType="DEFAULT_VEHTYPE" speedFactor="0.99" vaporized="traci"/>
    <tripinfo id="driver_22" depart="3.00" departLane="-27050852#2_0" departPos="2.25" departSpeed="0.00" departDelay="0.00" arrival="17.00" arrivalLane=":4730235240_0_2" arrivalPos="0.38" arrivalSpeed="2.64" duration="14.00" routeLength="121.36" waitingTime="0.00" waitingCount="0" stopTime="0.00" timeLoss="7.71" rerouteNo="0" devices="tripinfo_driver_22" vType="DEFAULT_VEHTYPE" speedFactor="0.83" vaporized="traci"/>
    <tripinfo id="driver_72" depart="7.00" departLane="28841121#0_0" departPos="1.36" departSpeed="0.00" departDelay="0.00" arrival="18.00" arrivalLane="28841121#1_1" arrivalPos="102.87" arrivalSpeed="17.03" duration="11.00" routeLength="103.17" waitingTime="0.00" waitingCount="0" stopTime="0.00" timeLoss="5.29" rerouteNo="0" devices="tripinfo_driver_72" vType="DEFAULT_VEHTYPE" speedFactor="0.98" vaporized="traci"/>
    <tripinfo id="driver_57" depart="6.00" departLane="425516617#11_0" departPos="5.10" departSpeed="0.00" departDelay="0.00" arrival="18.00" arrivalLane="502795937_0" arrivalPos="2.58" arrivalSpeed="21.30" duration="12.00" routeLength="138.75" waitingTime="0.00" waitingCount="0" stopTime="0.00" timeLoss="4.96" rerouteNo="0" devices="tripinfo_driver_57" vType="DEFAULT_VEHTYPE" speedFactor="0.97" vaporized=""/>
    <tripinfo id="driver_109" depart="11.00" departLane="-85789165_0" departPos="5.10" departSpeed="0.00" departDelay="0.00" arrival="19.00" arrivalLane=":1723739163_21_0" arrivalPos="5.45" arrivalSpeed="7.96" duration="8.00" routeLength="53.78" waitingTime="0.00" waitingCount="0" stopTime="0.00" timeLoss="3.99" rerouteNo="0" devices="tripinfo_driver_109" vType="DEFAULT_VEHTYPE" speedFactor="1.01" vaporized="traci"/>
    <tripinfo id="driver_25" depart="3.00" departLane="674757879#2_0" departPos="1.04" departSpeed="0.00" departDelay="0.00" arrival="19.00" arrivalLane="254297761#0_1" arrivalPos="0.20" arrivalSpeed="5.77" duration="16.00" routeLength="150.07" waitingTime="0.00" waitingCount="0" stopTime="0.00" timeLoss="6.92" rerouteNo="0" devices="tripinfo_driver_25" vType="DEFAULT_VEHTYPE" speedFactor="0.95" vaporized=""/>
    <tripinfo id="driver_39" depart="4.00" departLane="254297759_0" departPos="5.10" departSpeed="0.00" departDelay="0.00" arrival="20.00" arrivalLane="224316514_0" arrivalPos="44.39" arrivalSpeed="12.78" duration="16.00" routeLength="136.49" waitingTime="0.00" waitingCount="0" stopTime="0.00" timeLoss="7.16" rerouteNo="0" devices="tripinfo_driver_39" vType="DEFAULT_VEHTYPE" speedFactor="0.96" vaporized="traci"/>
    <tripinfo id="driver_46" depart="5.00" departLane="408572569_0" departPos="5.10" departSpeed="0.00" departDelay="0.00" arrival="20.00" arrivalLane="397136324#2_0" arrivalPos="0.98" arrivalSpeed="0.00" duration="15.00" routeLength="84.81" waitingTime="3.00" waitingCount="1" stopTime="0.00" timeLoss="9.65" rerouteNo="0" devices="tripinfo_driver_46" vType="DEFAULT_VEHTYPE" speedFactor="0.88" vaporized="traci"/>
    <tripinfo id="driver_81" depart="8.00" departLane="-254396709#1_0" departPos="5.10" departSpeed="0.00" departDelay="0.00" arrival="20.00" arrivalLane="-254396709#1_0" arrivalPos="119.13" arrivalSpeed="11.72" duration="12.00" routeLength="114.03" waitingTime="0.00" waitingCount="0" stopTime="0.00" timeLoss="6.53" rerouteNo="0" devices="tripinfo_driver_81" vType="DEFAULT_VEHTYPE" speedFactor="1.15" vaporized="traci"/>
    <tripinfo id="driver_28" depart="3.00" departLane="254758132_0" departPos="5.10" departSpeed="0.00" departDelay="0.00" arrival="21.00" arrivalLane="1035093272_1" arrivalPos="4.47" arrivalSpeed="7.10" duration="18.00" routeLength="158.88" waitingTime="0.00" waitingCount="0" stopTime="0.00" timeLoss="9.52" rerouteNo="0" devices="tripinfo_driver_28" vType="DEFAULT_VEHTYPE" speedFactor="1.18" vaporized="traci"/>
    <tripinfo id="driver_70" depart="7.00" departLane="406944780_0" departPos="5.10" departSpeed="0.00" departDelay="0.00" arrival="21.00" arrivalLane="91182060_0" arrivalPos="72.32" arrivalSpeed="17.71" duration="14.00" routeLength="118.40" waitingTime="0.00" waitingCount="0" stopTime="0.00" timeLoss="6.94" rerouteNo="0" devices="tripinfo_driver_70" vType="DEFAULT_VEHTYPE" speedFactor="1.06" vaporized="traci"/>
    <tripinfo id="driver_80" depart="8.00" departLane="-25372358#0_0" departPos="1.36" departSpeed="0.00" departDelay="0.00" arrival="21.00" arrivalLane="27054195#0_2" arrivalPos="95.78" arrivalSpeed="12.31" duration="13.00" routeLength="128.73" waitingTime="0.00" waitingCount="0" stopTime="0.00" timeLoss="5.47" rerouteNo="0" devices="tripinfo_driver_80" vType="DEFAULT_VEHTYPE" speedFactor="0.97" vaporized="traci"/>
    <tripinfo id="driver_91" depart="9.00" departLane="-781122181#2_0" departPos="0.20" departSpeed="0.00" departDelay="0.00" arrival="21.00" arrivalLane="-24588081#1_0" arrivalPos="1.45" arrivalSpeed="14.10" duration="12.00" routeLength="105.95" waitingTime="0.00" waitingCount="0" stopTime="0.00" timeLoss="4.22" rerouteNo="0" devices="tripinfo_driver_91" vType="DEFAULT_VEHTYPE" speedFactor="1.09" vaporized=""/>
    <tripinfo id="driver_15" depart="2.00" departLane="254297761#0_0" departPos="0.20" departSpeed="0.00" departDelay="0.00" arrival="23.00" arrivalLane="254297761#1_0" arrivalPos="85.34" arrivalSpeed="0.00" duration="21.00" routeLength="86.42" waitingTime="4.00" waitingCount="1" stopTime="0.00" timeLoss="9.73" rerouteNo="0" devices="tripinfo_driver_15" vType="DEFAULT_VEHTYPE" speedFactor="0.94" vaporized="traci"/>
    <tripinfo id="driver_42" depart="5.00" departLane="-255168048#5_0" departPos="1.28" departSpeed="0.00" departDelay="0.00" arrival="23.00" arrivalLane="255168048#4_0" arrivalPos="18.82" arrivalSpeed="9.22" duration="18.00" routeLength="157.67" waitingTime="0.00" waitingCount="0" stopTime="0.00" timeLoss="9.48" rerouteNo="0" devices="tripinfo_driver_42" vType="DEFAULT_VEHTYPE" speedFactor="1.04" vaporized="traci"/>
    <tripinfo id="driver_86" depart="9.00" departLane="-51392402_0" departPos="5.10" departSpeed="0.00" departDelay="0.00" arrival="23.00" arrivalLane="-111560680#1_0" arrivalPos="38.36" arrivalSpeed="17.10" duration="14.00" routeLength="155.53" waitingTime="0.00" waitingCount="0" stopTime="0.00" timeLoss="7.52" rerouteNo="0" devices="tripinfo_driver_86" vType="DEFAULT_VEHTYPE" speedFactor="1.02" vaporized="traci"/>
    <tripinfo id="driver_12" depart="2.00" departLane="721674320#0_0" departPos="5.10" departSpeed="0.00" departDelay="0.00" arrival="24.00" arrivalLane="-26938155#1_0" arrivalPos="12.44" arrivalSpeed="12.11" duration="22.00" routeLength="182.52" waitingTime="0.00" waitingCount="0" stopTime="0.00" timeLoss="10.00" rerouteNo="0" devices="tripinfo_driver_12" vType="DEFAULT_VEHTYPE" speedFactor="0.99" vaporized="traci"/>
    <tripinfo id="driver_30" depart="3.00" departLane="-772972816_0" departPos="5.10" departSpeed="0.00" departDelay="0.00" arrival="24.00" arrivalLane="934194966#1_0" arrivalPos="2.32" arrivalSpeed="0.01" duration="21.00" routeLength="203.31" waitingTime="1.00" waitingCount="1" stopTime="0.00" timeLoss="10.37" rerouteNo="0" devices="tripinfo_driver_30" vType="DEFAULT_VEHTYPE" speedFactor="1.01" vaporized="traci"/>
    <tripinfo id="driver_35" depart="4.00" departLane="-225518506_0" departPos="5.10" departSpeed="0.00" departDelay="0.00" arrival="24.00" arrivalLane=":65327174_7_0" arrivalPos="2.52" arrivalSpeed="5.01" duration="20.00" routeLength="180.46" waitingTime="0.00" waitingCount="0" stopTime="0.00" timeLoss="5.14" rerouteNo="0" devices="tripinfo_driver_35" vType="DEFAULT_VEHTYPE" speedFactor="1.18" vaporized="traci"/>
    <tripinfo id="driver_79" depart="8.00" departLane="-397146715#2_0" departPos="0.20" departSpeed="0.00" departDelay="0.00" arrival="24.00" arrivalLane="-28843615#1_0" arrivalPos="13.41" arrivalSpeed="22.55" duration="16.00" routeLength="213.51" waitingTime="0.00" waitingCount="0" stopTime="0.00" timeLoss="5.55" rerouteNo="0" devices="tripinfo_driver_79" vType="DEFAULT_VEHTYPE" speedFactor="1.02" vaporized="traci"/>
    <tripinfo id="driver_108" depart="11.00" departLane="228196396#0_0" departPos="5.10" departSpeed="0.00" departDelay="0.00" arrival="24.00" arrivalLane=":1723738990_4_0" arrivalPos="9.42" arrivalSpeed="4.98" duration="13.00" routeLength="57.16" waitingTime="0.00" waitingCount="0" stopTime="0.00" timeLoss="6.18" rerouteNo="0" devices="tripinfo_driver_108" vType="DEFAULT_VEHTYPE" speedFactor="1.10" vaporized="traci"/>
    <tripinfo id="driver_113" depart="18.00" departLane="-148847000_0" departPos="5.10" departSpeed="0.00" departDelay="0.00" arrival="25.00" arrivalLane="-148847000_0" arrivalPos="42.20" arrivalSpeed="10.46" duration="7.00" routeLength="37.10" waitingTime="0.00" waitingCount="0" stopTime="0.00" timeLoss="3.31" rerouteNo="0" devices="tripinfo_driver_113" vType="DEFAULT_VEHTYPE" speedFactor="0.99" vaporized="traci"/>
    <tripinfo id="driver_2" depart="1.00" departLane="254758114#6_0" departPos="0.60" departSpeed="0.00" departDelay="0.00" arrival="26.00" arrivalLane=":65303544_8_0" arrivalPos="10.11" arrivalSpeed="11.12" duration="25.00" routeLength="236.08" waitingTime="0.00" waitingCount="0" stopTime="0.00" timeLoss="5.01" rerouteNo="0" devices="tripinfo_driver_2" vType="DEFAULT_VEHTYPE" speedFactor="1.03" vaporized="traci"/>
    <tripinfo id="driver_16" depart="2.00" departLane="88559669#1_0" departPos="5.10" departSpeed="0.00" departDelay="0.00" arrival="27.00" arrivalLane="88559669#2_0" arrivalPos="2.58" arrivalSpeed="0.00" duration="25.00" routeLength="66.42" waitingTime="14.00" waitingCount="1" stopTime="0.00" timeLoss="20.81" rerouteNo="0" devices="tripinfo_driver_16" vType="DEFAULT_VEHTYPE" speedFactor="0.94" vaporized="traci"/>
    <tripinfo id="driver_71" depart="7.00" departLane="-945294697_0" departPos="5.10" departSpeed="0.00" departDelay="0.00" arrival="28.00" arrivalLane="706543478#1_1" arrivalPos="19.78" arrivalSpeed="8.42" duration="21.00" routeLength="191.51" waitingTime="0.00" waitingCount="0" stopTime="0.00" timeLoss="9.12" rerouteNo="0" devices="tripinfo_driver_71" vType="DEFAULT_VEHTYPE" speedFactor="0.96" vaporized="traci"/>
    <tripinfo id="driver_89" depart="9.00" departLane="721174655_0" departPos="5.10" departSpeed="0.00" departDelay="0.00" arrival="28.00" arrivalLane="721174655_2" arrivalPos="41.81" arrivalSpeed="0.00" duration="19.00" routeLength="36.71" waitingTime="9.00" waitingCount="1" stopTime="0.00" timeLoss="16.02" rerouteNo="0" devices="tripinfo_driver_89" vType="DEFAULT_VEHTYPE" speedFactor="0.83" vaporized="traci"/>
    <tripinfo id="driver_93" depart="10.00" departLane="-146155124_0" departPos="5.10" departSpeed="0.00" departDelay="0.00" arrival="28.00" arrivalLane="146155124_0" arrivalPos="44.92" arrivalSpeed="12.42" duration="18.00" routeLength="109.59" waitingTime="0.00" waitingCount="0" stopTime="0.00" timeLoss="8.09" rerouteNo="0" devices="tripinfo_driver_93" vType="DEFAULT_VEHTYPE" speedFactor="1.01" vaporized="traci"/>
    <tripinfo id="driver_19" depart="3.00" departLane="28808539#2_0" departPos="5.10" departSpeed="0.00" departDelay="0.00" arrival="29.00" arrivalLane="28808542#1_0" arrivalPos="71.52" arrivalSpeed="12.95" duration="26.00" routeLength="252.70" waitingTime="0.00" waitingCount="0" stopTime="0.00" timeLoss="6.44" rerouteNo="0" devices="tripinfo_driver_19" vType="DEFAULT_VEHTYPE" speedFactor="1.01" vaporized="traci"/>
    <tripinfo id="driver_20" depart="3.00" departLane="-148847000_0" departPos="5.10" departSpeed="0.00" departDelay="0.00" arrival="29.00" arrivalLane="681183500#1_1" arrivalPos="15.29" arrivalSpeed="8.63" duration="26.00" routeLength="206.60" waitingTime="0.00" waitingCount="0" stopTime="0.00" timeLoss="7.34" rerouteNo="0" devices="tripinfo_driver_20" vType="DEFAULT_VEHTYPE" speedFactor="0.97" vaporized="traci"/>
    <tripinfo id="driver_52" depart="6.00" departLane="148874364#1_0" departPos="5.10" departSpeed="0.00" departDelay="0.00" arrival="29.00" arrivalLane=":65326703_9_0" arrivalPos="8.77" arrivalSpeed="9.45" duration="23.00" routeLength="184.00" waitingTime="0.00" waitingCount="0" stopTime="0.00" timeLoss="5.00" rerouteNo="0" devices="tripinfo_driver_52" vType="DEFAULT_VEHTYPE" speedFactor="1.00" vaporized="traci"/>
    <tripinfo id="driver_68" depart="7.00" departLane="-146155465#2_0" departPos="5.10" departSpeed="0.00" departDelay="0.00" arrival="29.00" arrivalLane="146155465#2_0" arrivalPos="31.12" arrivalSpeed="10.18" duration="22.00" routeLength="158.61" waitingTime="0.00" waitingCount="0" stopTime="0.00" timeLoss="5.18" rerouteNo="0" devices="tripinfo_driver_68" vType="DEFAULT_VEHTYPE" speedFactor="0.97" vaporized="traci"/>
    <tripinfo id="driver_78" depart="8.00" departLane="-48211062#3_0" departPos="5.10" departSpeed="0.00" departDelay="0.00" arrival="29.00" arrivalLane="48211062#3_0" arrivalPos="36.86" arrivalSpeed="12.27" duration="21.00" routeLength="168.89" waitingTime="0.00" waitingCount="0" stopTime="0.00" timeLoss="7.22" rerouteNo="0" devices="tripinfo_driver_78" vType="DEFAULT_VEHTYPE" speedFactor="1.00" vaporized="traci"/>
    <tripinfo id="driver_36" depart="4.00" departLane="425516638#0_0" departPos="0.20" departSpeed="0.00" departDelay="0.00" arrival="30.00" arrivalLane="461084154#2_1" arrivalPos="32.88" arrivalSpeed="0.00" duration="26.00" routeLength="173.07" waitingTime="2.00" waitingCount="1" stopTime="0.00" timeLoss="13.69" rerouteNo="0" devices="tripinfo_driver_36" vType="DEFAULT_VEHTYPE" speedFactor="1.10" vaporized="traci"/>
    <tripinfo id="driver_41" depart="4.00" departLane="-277480424_0" departPos="5.10" departSpeed="0.00" departDelay="0.00" arrival="30.00" arrivalLane="542267688_0" arrivalPos="54.57" arrivalSpeed="8.73" duration="26.00" routeLength="191.26" waitingTime="0.00" waitingCount="0" stopTime="0.00" timeLoss="4.19" rerouteNo="0" devices="tripinfo_driver_41" vType="DEFAULT_VEHTYPE" speedFactor="1.04" vaporized="traci"/>
    <tripinfo id="driver_87" depart="9.00" departLane="-28738271#1_0" departPos="5.10" departSpeed="0.00" departDelay="0.00" arrival="30.00" arrivalLane="399215885#2_0" arrivalPos="77.72" arrivalSpeed="10.76" duration="21.00" routeLength="171.34" waitingTime="0.00" waitingCount="0" stopTime="0.00" timeLoss="4.21" rerouteNo="0" devices="tripinfo_driver_87" vType="DEFAULT_VEHTYPE" speedFactor="1.02" vaporized="traci"/>
    <tripinfo id="driver_101" depart="11.00" departLane="-254758127#1_0" departPos="5.10" departSpeed="0.00" departDelay="0.00" arrival="30.00" arrivalLane="26938338_0" arrivalPos="92.78" arrivalSpeed="9.27" duration="19.00" routeLength="171.17" waitingTime="0.00" waitingCount="0" stopTime="0.00" timeLoss="6.01" rerouteNo="0" devices="tripinfo_driver_101" vType="DEFAULT_VEHTYPE" speedFactor="1.07" vaporized="traci"/>
    <tripinfo id="driver_105" depart="11.00" departLane="-144346316#8_0" departPos="1.09" departSpeed="0.00" departDelay="0.00" arrival="30.00" arrivalLane="-144346316#4_0" arrivalPos="118.63" arrivalSpeed="15.05" duration="19.00" routeLength="265.23" waitingTime="0.00" waitingCount="0" stopTime="0.00" timeLoss="5.56" rerouteNo="0" devices="tripinfo_driver_105" vType="DEFAULT_VEHTYPE" speedFactor="0.96" vaporized="traci"/>
    <tripinfo id="driver_82" depart="8.00" departLane="254297759_0" departPos="5.10" departSpeed="0.00" departDelay="0.00" arrival="32.00" arrivalLane=":65305815_0_0" arrivalPos="5.16" arrivalSpeed="6.21" duration="24.00" routeLength="223.81" waitingTime="0.00" waitingCount="0" stopTime="0.00" timeLoss="8.23" rerouteNo="0" devices="tripinfo_driver_82" vType="DEFAULT_VEHTYPE" speedFactor="0.98" vaporized="traci"/>
    <tripinfo id="driver_24" depart="3.00" departLane="27166444#0_0" departPos="5.10" departSpeed="0.00" departDelay="0.00" arrival="33.00" arrivalLane="27166444#0_2" arrivalPos="84.28" arrivalSpeed="0.00" duration="30.00" routeLength="79.18" waitingTime="17.00" waitingCount="1" stopTime="0.00" timeLoss="25.89" rerouteNo="0" devices="tripinfo_driver_24" vType="DEFAULT_VEHTYPE" speedFactor="0.92" vaporized="traci"/>
    <tripinfo id="driver_40" depart="4.00" departLane="86334994#3_0" departPos="5.10" departSpeed="0.00" departDelay="0.00" arrival="33.00" arrivalLane=":1270745642_0_1" arrivalPos="0.06" arrivalSpeed="0.00" duration="29.00" routeLength="163.08" waitingTime="12.00" waitingCount="1" stopTime="0.00" timeLoss="22.61" rerouteNo="0" devices="tripinfo_driver_40" vType="DEFAULT_VEHTYPE" speedFactor="1.09" vaporized="traci"/>
    <tripinfo id="driver_62" depart="6.00" departLane="968937450#1_0" departPos="5.10" departSpeed="0.00" departDelay="0.00" arrival="33.00" arrivalLane="968937450#1_0" arrivalPos="86.99" arrivalSpeed="0.00" duration="27.00" routeLength="81.89" waitingTime="15.00" waitingCount="1" stopTime="0.00" timeLoss="22.86" rerouteNo="0" devices="tripinfo_driver_62" vType="DEFAULT_VEHTYPE" speedFactor="0.94" vaporized="traci"/>
    <tripinfo id="driver_99" depart="10.00" departLane="619979106#1_0" departPos="2.24" departSpeed="0.00" departDelay="0.00" arrival="34.00" arrivalLane="403880755#1_0" arrivalPos="125.76" arrivalSpeed="8.34" duration="24.00" routeLength="171.62" waitingTime="0.00" waitingCount="0" stopTime="0.00" timeLoss="3.17" rerouteNo="0" devices="tripinfo_driver_99" vType="DEFAULT_VEHTYPE" speedFactor="0.97" vaporized="traci"/>
    <tripinfo id="driver_17" depart="2.00" departLane="254758128_0" departPos="5.10" departSpeed="0.00" departDelay="0.00" arrival="35.00" arrivalLane="254758128_0" arrivalPos="87.60" arrivalSpeed="0.00" duration="33.00" routeLength="82.50" waitingTime="20.00" waitingCount="1" stopTime="0.00" timeLoss="24.03" rerouteNo="0" devices="tripinfo_driver_17" vType="DEFAULT_VEHTYPE" speedFactor="1.16" vaporized="traci"/>
    <tripinfo id="driver_33" depart="4.00" departLane="8916453_0" departPos="5.10" departSpeed="0.00" departDelay="0.00" arrival="36.00" arrivalLane="146155465#1_0" arrivalPos="86.94" arrivalSpeed="10.61" duration="32.00" routeLength="252.29" waitingTime="0.00" waitingCount="0" stopTime="0.00" timeLoss="8.36" rerouteNo="0" devices="tripinfo_driver_33" vType="DEFAULT_VEHTYPE" speedFactor="1.02" vaporized="traci"/>
    <tripinfo id="driver_43" depart="5.00" departLane="27054196#0_0" departPos="1.41" departSpeed="0.00" departDelay="0.00" arrival="36.00" arrivalLane="417101710#0_0" arrivalPos="10.83" arrivalSpeed="0.04" duration="31.00" routeLength="270.40" waitingTime="1.00" waitingCount="1" stopTime="0.00" timeLoss="18.34" rerouteNo="0" devices="tripinfo_driver_43" vType="DEFAULT_VEHTYPE" speedFactor="1.09" vaporized="traci"/>
    <tripinfo id="driver_73" depart="7.00" departLane="224316520_0" departPos="5.10" departSpeed="0.00" departDelay="0.00" arrival="36.00" arrivalLane="406944778_0" arrivalPos="27.17" arrivalSpeed="0.00" duration="29.00" routeLength="79.65" waitingTime="15.00" waitingCount="1" stopTime="0.00" timeLoss="25.22" rerouteNo="0" devices="tripinfo_driver_73" vType="DEFAULT_VEHTYPE" speedFactor="1.03" vaporized="traci"/>
    <tripinfo id="driver_102" depart="11.00" departLane="425516640#1_0" departPos="5.10" departSpeed="0.00" departDelay="0.00" arrival="36.00" arrivalLane="461084154#2_1" arrivalPos="22.07" arrivalSpeed="10.28" duration="25.00" routeLength="215.85" waitingTime="0.00" waitingCount="0" stopTime="0.00" timeLoss="7.83" rerouteNo="0" devices="tripinfo_driver_102" vType="DEFAULT_VEHTYPE" speedFactor="1.01" vaporized="traci"/>
    <tripinfo id="driver_60" depart="6.00" departLane="681183502#0_0" departPos="4.99" departSpeed="0.00" departDelay="0.00" arrival="37.00" arrivalLane="28841121#1_1" arrivalPos="127.10" arrivalSpeed="0.00" duration="31.00" routeLength="146.54" waitingTime="13.00" waitingCount="2" stopTime="0.00" timeLoss="23.51" rerouteNo="0" devices="tripinfo_driver_60" vType="DEFAULT_VEHTYPE" speedFactor="1.02" vaporized="traci"/>
    <tripinfo id="driver_100" depart="11.00" departLane="527857414#1_0" departPos="5.10" departSpeed="0.00" departDelay="0.00" arrival="37.00" arrivalLane="527857414#2_2" arrivalPos="42.88" arrivalSpeed="0.00" duration="26.00" routeLength="80.77" waitingTime="13.00" waitingCount="1" stopTime="0.00" timeLoss="17.42" rerouteNo="0" devices="tripinfo_driver_100" vType="DEFAULT_VEHTYPE" speedFactor="0.95" vaporized="traci"/>
    <tripinfo id="driver_53" depart="6.00" departLane="-397146714#1_0" departPos="0.20" departSpeed="0.00" departDelay="0.00" arrival="38.00" arrivalLane=":65332847_1_0" arrivalPos="5.16" arrivalSpeed="4.19" duration="32.00" routeLength="228.35" waitingTime="5.00" waitingCount="1" stopTime="0.00" timeLoss="16.38" rerouteNo="0" devices="tripinfo_driver_53" vType="DEFAULT_VEHTYPE" speedFactor="1.00" vaporized="traci"/>
    <tripinfo id="driver_76" depart="7.00" departLane="-619979111#1_0" departPos="4.87" departSpeed="0.00" departDelay="0.00" arrival="38.00" arrivalLane=":7217057124_2_0" arrivalPos="10.03" arrivalSpeed="9.82" duration="31.00" routeLength="270.07" waitingTime="0.00" waitingCount="0" stopTime="0.00" timeLoss="17.38" rerouteNo="1" devices="tripinfo_driver_76" vType="DEFAULT_VEHTYPE" speedFactor="1.09" vaporized="traci"/>
    <tripinfo id="driver_97" depart="10.00" departLane="-254466686#4_0" departPos="0.10" departSpeed="0.00" departDelay="0.00" arrival="38.00" arrivalLane="254466686#6_0" arrivalPos="86.21" arrivalSpeed="3.02" duration="28.00" routeLength="287.23" waitingTime="0.00" waitingCount="0" stopTime="0.00" timeLoss="14.21" rerouteNo="0" devices="tripinfo_driver_97" vType="DEFAULT_VEHTYPE" speedFactor="1.06" vaporized="traci"/>
    <tripinfo id="driver_112" depart="17.00" departLane="1062095135_0" departPos="5.10" departSpeed="0.00" departDelay="0.00" arrival="38.00" arrivalLane="1062095135_0" arrivalPos="85.79" arrivalSpeed="0.00" duration="21.00" routeLength="80.69" waitingTime="6.00" waitingCount="1" stopTime="0.00" timeLoss="11.01" rerouteNo="0" devices="tripinfo_driver_112" vType="DEFAULT_VEHTYPE" speedFactor="1.00" vaporized="traci"/>