<?xml version="1.0" encoding="UTF-8"?>

<!-- generated on 17/05/2021 16:21:58 by Eclipse SUMO GUI Version 1.9.0
<configuration xmlns:xsi="http://www.w3.org/2001/XMLSchema-instance" xsi:noNamespaceSchemaLocation="http://sumo.dlr.de/xsd/sumoConfiguration.xsd">

    <input>
        <net-file value="net_config/manhattan.net.xml"/>
        <route-files value="net_config/random_trips.trips.xml"/>
        <additional-files value="net_config/add.add.xml"/>
    </input>

    <output>
        <tripinfo-output value="net_config/tripinfo.xml"/>
    </output>

    <time>
        <step-length value="1"/>
    </time>

    <processing>
        <time-to-teleport value="0"/>
    </processing>

    <taxi_device>
        <device.taxi.dispatch-algorithm value="traci"/>
        <device.taxi.idle-algorithm value="randomCircling"/>
    </taxi_device>

    <traci_server>
        <remote-port value="56917"/>
    </traci_server>

    <gui_only>
        <gui-settings-file value="net_config/gui-settings.cfg"/>
        <tracker-interval value="1"/>
    </gui_only>

</configuration>
-->

<tripinfos xmlns:xsi="http://www.w3.org/2001/XMLSchema-instance" xsi:noNamespaceSchemaLocation="http://sumo.dlr.de/xsd/tripinfo_file.xsd">
</tripinfos>
