<?xml version="1.0" encoding="UTF-8"?>

<!-- generated on 2022-08-29 19:14:36 by Eclipse SUMO sumo Version 1.14.1
<configuration xmlns:xsi="http://www.w3.org/2001/XMLSchema-instance" xsi:noNamespaceSchemaLocation="http://sumo.dlr.de/xsd/sumoConfiguration.xsd">

    <input>
        <net-file value="net_config/san-francisco.net.xml"/>
        <additional-files value="net_config/add.add.xml"/>
    </input>

    <output>
        <tripinfo-output value="net_config/tripinfo.xml"/>
    </output>

    <time>
        <step-length value="1"/>
    </time>

    <processing>
        <time-to-teleport value="0"/>
    </processing>

    <traci_server>
        <remote-port value="53452"/>
    </traci_server>

    <gui_only>
        <gui-settings-file value="net_config/gui-settings.cfg"/>
    </gui_only>

</configuration>
-->

<tripinfos xmlns:xsi="http://www.w3.org/2001/XMLSchema-instance" xsi:noNamespaceSchemaLocation="http://sumo.dlr.de/xsd/tripinfo_file.xsd">
    <tripinfo id="driver_15" depart="2.00" departLane="-619979101_0" departPos="5.10" departSpeed="0.00" departDelay="0.00" arrival="5.00" arrivalLane="-619979101_0" arrivalPos="10.66" arrivalSpeed="3.64" duration="3.00" routeLength="5.56" waitingTime="0.00" waitingCount="0" stopTime="0.00" timeLoss="1.73" rerouteNo="0" devices="tripinfo_driver_15" vType="DEFAULT_VEHTYPE" speedFactor="0.94" vaporized="traci"/>
    <tripinfo id="driver_26" depart="3.00" departLane="397146713#0_0" departPos="5.10" departSpeed="0.00" departDelay="0.00" arrival="7.00" arrivalLane="397146713#0_0" arrivalPos="15.97" arrivalSpeed="5.18" duration="4.00" routeLength="10.87" waitingTime="0.00" waitingCount="0" stopTime="0.00" timeLoss="2.57" rerouteNo="0" devices="tripinfo_driver_26" vType="DEFAULT_VEHTYPE" speedFactor="1.13" vaporized="traci"/>
    <personinfo id="customer_2" depart="7.00" type="DEFAULT_PEDTYPE">
        <stop duration="1.00" arrival="8.00" arrivalPos="0.00" actType="waiting"/>
    </personinfo>
    <tripinfo id="driver_23" depart="3.00" departLane="425516653#2_0" departPos="0.62" departSpeed="0.00" departDelay="0.00" arrival="9.00" arrivalLane="850158700#1_0" arrivalPos="19.99" arrivalSpeed="9.65" duration="6.00" routeLength="29.05" waitingTime="0.00" waitingCount="0" stopTime="0.00" timeLoss="2.91" rerouteNo="0" devices="tripinfo_driver_23" vType="DEFAULT_VEHTYPE" speedFactor="0.87" vaporized="traci"/>
    <tripinfo id="driver_62" depart="7.00" departLane="-425516661#2_0" departPos="5.10" departSpeed="0.00" departDelay="0.00" arrival="10.00" arrivalLane="-425516661#2_0" arrivalPos="10.33" arrivalSpeed="3.35" duration="3.00" routeLength="5.23" waitingTime="0.00" waitingCount="0" stopTime="0.00" timeLoss="1.57" rerouteNo="0" devices="tripinfo_driver_62" vType="DEFAULT_VEHTYPE" speedFactor="0.88" vaporized="traci"/>
    <tripinfo id="driver_21" depart="3.00" departLane="-30029703#9_0" departPos="5.10" departSpeed="0.00" departDelay="0.00" arrival="11.00" arrivalLane="-30029703#9_0" arrivalPos="57.51" arrivalSpeed="11.99" duration="8.00" routeLength="52.41" waitingTime="0.00" waitingCount="0" stopTime="0.00" timeLoss="2.76" rerouteNo="0" devices="tripinfo_driver_21" vType="DEFAULT_VEHTYPE" speedFactor="0.89" vaporized="traci"/>
    <tripinfo id="driver_97" depart="10.00" departLane="27398045#2_0" departPos="5.10" departSpeed="0.00" departDelay="0.00" arrival="11.00" arrivalLane="27398045#2_0" arrivalPos="5.10" arrivalSpeed="0.00" duration="1.00" routeLength="0.00" waitingTime="0.00" waitingCount="0" stopTime="0.00" timeLoss="0.00" rerouteNo="1" devices="tripinfo_driver_97" vType="DEFAULT_VEHTYPE" speedFactor="1.06" vaporized="traci"/>
    <tripinfo id="driver_83" depart="8.00" departLane="527857410#1_0" departPos="5.10" departSpeed="0.00" departDelay="0.00" arrival="12.00" arrivalLane="527857410#1_0" arrivalPos="14.90" arrivalSpeed="4.67" duration="4.00" routeLength="9.80" waitingTime="0.00" waitingCount="0" stopTime="0.00" timeLoss="2.13" rerouteNo="0" devices="tripinfo_driver_83" vType="DEFAULT_VEHTYPE" speedFactor="1.00" vaporized="traci"/>
    <tripinfo id="driver_52" depart="5.00" departLane="417087519#1_0" departPos="5.10" departSpeed="0.00" departDelay="0.00" arrival="13.00" arrivalLane="417087511#0_0" arrivalPos="5.01" arrivalSpeed="10.85" duration="8.00" routeLength="50.98" waitingTime="0.00" waitingCount="0" stopTime="0.00" timeLoss="2.46" rerouteNo="0" devices="tripinfo_driver_52" vType="DEFAULT_VEHTYPE" speedFactor="1.00" vaporized="traci"/>
    <tripinfo id="driver_32" depart="4.00" departLane="425516648_0" departPos="5.10" departSpeed="0.00" departDelay="0.00" arrival="14.00" arrivalLane="425516648_0" arrivalPos="87.38" arrivalSpeed="17.10" duration="10.00" routeLength="82.28" waitingTime="0.00" waitingCount="0" stopTime="0.00" timeLoss="5.28" rerouteNo="0" devices="tripinfo_driver_32" vType="DEFAULT_VEHTYPE" speedFactor="0.99" vaporized="traci"/>
    <tripinfo id="driver_41" depart="4.00" departLane="-88572887#2_0" departPos="5.10" departSpeed="0.00" departDelay="0.00" arrival="14.00" arrivalLane="88572887#2_0" arrivalPos="7.33" arrivalSpeed="5.90" duration="10.00" routeLength="43.45" waitingTime="0.00" waitingCount="0" stopTime="0.00" timeLoss="6.82" rerouteNo="0" devices="tripinfo_driver_41" vType="DEFAULT_VEHTYPE" speedFactor="1.04" vaporized="traci"/>
    <tripinfo id="driver_101" depart="10.00" departLane="619979113#1_0" departPos="5.10" departSpeed="0.00" departDelay="0.00" arrival="14.00" arrivalLane="619979113#1_0" arrivalPos="5.79" arrivalSpeed="0.01" duration="4.00" routeLength="0.69" waitingTime="2.00" waitingCount="1" stopTime="0.00" timeLoss="2.97" rerouteNo="0" devices="tripinfo_driver_101" vType="DEFAULT_VEHTYPE" speedFactor="0.89" vaporized="traci"/>
    <tripinfo id="driver_79" depart="8.00" departLane="-287958606#2_0" departPos="0.20" departSpeed="0.00" departDelay="0.00" arrival="15.00" arrivalLane="-287958606#1_0" arrivalPos="41.59" arrivalSpeed="12.64" duration="7.00" routeLength="42.34" waitingTime="0.00" waitingCount="0" stopTime="0.00" timeLoss="4.13" rerouteNo="0" devices="tripinfo_driver_79" vType="DEFAULT_VEHTYPE" speedFactor="1.02" vaporized="traci"/>
    <tripinfo id="driver_5" depart="1.00" departLane="681928621_0" departPos="5.10" departSpeed="0.00" departDelay="0.00" arrival="16.00" arrivalLane=":4061806112_1_2" arrivalPos="10.80" arrivalSpeed="0.00" duration="15.00" routeLength="45.21" waitingTime="6.00" waitingCount="1" stopTime="0.00" timeLoss="9.44" rerouteNo="0" devices="tripinfo_driver_5" vType="DEFAULT_VEHTYPE" speedFactor="0.89" vaporized="traci"/>
    <tripinfo id="driver_34" depart="4.00" departLane="-550652206#1_0" departPos="2.82" departSpeed="0.00" departDelay="0.00" arrival="17.00" arrivalLane="772536173#0_2" arrivalPos="36.92" arrivalSpeed="18.81" duration="13.00" routeLength="127.08" waitingTime="0.00" waitingCount="0" stopTime="0.00" timeLoss="4.93" rerouteNo="0" devices="tripinfo_driver_34" vType="DEFAULT_VEHTYPE" speedFactor="0.97" vaporized="traci"/>
    <tripinfo id="driver_76" depart="8.00" departLane="8917693_0" departPos="5.10" departSpeed="0.00" departDelay="0.00" arrival="17.00" arrivalLane="8917693_0" arrivalPos="80.72" arrivalSpeed="14.30" duration="9.00" routeLength="75.62" waitingTime="0.00" waitingCount="0" stopTime="0.00" timeLoss="2.99" rerouteNo="0" devices="tripinfo_driver_76" vType="DEFAULT_VEHTYPE" speedFactor="1.09" vaporized="traci"/>
    <tripinfo id="driver_87" depart="9.00" departLane="461084153#6_0" departPos="5.10" departSpeed="0.00" departDelay="0.00" arrival="17.00" arrivalLane="461084153#6_0" arrivalPos="52.87" arrivalSpeed="12.79" duration="8.00" routeLength="47.77" waitingTime="0.00" waitingCount="0" stopTime="0.00" timeLoss="3.62" rerouteNo="0" devices="tripinfo_driver_87" vType="DEFAULT_VEHTYPE" speedFactor="1.02" vaporized="traci"/>
    <tripinfo id="driver_43" depart="5.00" departLane="-212214144#2_0" departPos="5.10" departSpeed="0.00" departDelay="0.00" arrival="19.00" arrivalLane="425516617#11_0" arrivalPos="19.34" arrivalSpeed="10.65" duration="14.00" routeLength="107.66" waitingTime="0.00" waitingCount="0" stopTime="0.00" timeLoss="4.86" rerouteNo="0" devices="tripinfo_driver_43" vType="DEFAULT_VEHTYPE" speedFactor="1.09" vaporized="traci"/>
    <tripinfo id="driver_48" depart="5.00" departLane="-184956229_0" departPos="5.10" departSpeed="0.00" departDelay="0.00" arrival="19.00" arrivalLane="144489134#2_1" arrivalPos="61.34" arrivalSpeed="16.29" duration="14.00" routeLength="104.44" waitingTime="0.00" waitingCount="0" stopTime="0.00" timeLoss="7.94" rerouteNo="0" devices="tripinfo_driver_48" vType="DEFAULT_VEHTYPE" speedFactor="0.85" vaporized="traci"/>
    <tripinfo id="driver_17" depart="2.00" departLane="-397144576#0_0" departPos="2.97" departSpeed="0.00" departDelay="0.00" arrival="20.00" arrivalLane="-26988030#1_0" arrivalPos="22.84" arrivalSpeed="10.17" duration="18.00" routeLength="141.67" waitingTime="0.00" waitingCount="0" stopTime="0.00" timeLoss="3.11" rerouteNo="0" devices="tripinfo_driver_17" vType="DEFAULT_VEHTYPE" speedFactor="1.16" vaporized="traci"/>
    <tripinfo id="driver_49" depart="5.00" departLane="1035093272_0" departPos="5.10" departSpeed="0.00" departDelay="0.00" arrival="21.00" arrivalLane="1035093273_0" arrivalPos="43.74" arrivalSpeed="10.18" duration="16.00" routeLength="106.15" waitingTime="0.00" waitingCount="0" stopTime="0.00" timeLoss="4.43" rerouteNo="0" devices="tripinfo_driver_49" vType="DEFAULT_VEHTYPE" speedFactor="1.17" vaporized="traci"/>
    <tripinfo id="driver_64" depart="7.00" departLane="-588340587#1_0" departPos="2.41" departSpeed="0.00" departDelay="0.00" arrival="21.00" arrivalLane="588340586_0" arrivalPos="112.90" arrivalSpeed="11.68" duration="14.00" routeLength="120.25" waitingTime="0.00" waitingCount="0" stopTime="0.00" timeLoss="2.99" rerouteNo="0" devices="tripinfo_driver_64" vType="DEFAULT_VEHTYPE" speedFactor="0.91" vaporized="traci"/>
    <tripinfo id="driver_70" depart="7.00" departLane="-228201785#1_0" departPos="5.10" departSpeed="0.00" departDelay="0.00" arrival="21.00" arrivalLane="228201785#0_0" arrivalPos="8.80" arrivalSpeed="5.82" duration="14.00" routeLength="83.98" waitingTime="0.00" waitingCount="0" stopTime="0.00" timeLoss="8.01" rerouteNo="0" devices="tripinfo_driver_70" vType="DEFAULT_VEHTYPE" speedFactor="1.06" vaporized="traci"/>
    <tripinfo id="driver_91" depart="9.00" departLane="111560679#1_0" departPos="5.10" departSpeed="0.00" departDelay="0.00" arrival="21.00" arrivalLane="111560679#1_0" arrivalPos="127.13" arrivalSpeed="20.30" duration="12.00" routeLength="122.03" waitingTime="0.00" waitingCount="0" stopTime="0.00" timeLoss="6.97" rerouteNo="0" devices="tripinfo_driver_91" vType="DEFAULT_VEHTYPE" speedFactor="1.09" vaporized="traci"/>
    <tripinfo id="driver_96" depart="10.00" departLane="-514407369#0_0" departPos="5.10" departSpeed="0.00" departDelay="0.00" arrival="21.00" arrivalLane=":4188186120_5_0" arrivalPos="2.71" arrivalSpeed="11.22" duration="11.00" routeLength="86.69" waitingTime="0.00" waitingCount="0" stopTime="0.00" timeLoss="2.93" rerouteNo="0" devices="tripinfo_driver_96" vType="DEFAULT_VEHTYPE" speedFactor="1.10" vaporized="traci"/>
    <tripinfo id="driver_107" depart="11.00" departLane="417101715_0" departPos="5.10" departSpeed="0.00" departDelay="0.00" arrival="21.00" arrivalLane="766116625#1_0" arrivalPos="1.27" arrivalSpeed="8.28" duration="10.00" routeLength="52.14" waitingTime="0.00" waitingCount="0" stopTime="0.00" timeLoss="5.62" rerouteNo="0" devices="tripinfo_driver_107" vType="DEFAULT_VEHTYPE" speedFactor="0.87" vaporized="traci"/>
    <tripinfo id="driver_55" depart="6.00" departLane="-446598001#1_0" departPos="5.10" departSpeed="0.00" departDelay="0.00" arrival="22.00" arrivalLane="-399156531#6_0" arrivalPos="90.96" arrivalSpeed="22.45" duration="16.00" routeLength="231.61" waitingTime="0.00" waitingCount="0" stopTime="0.00" timeLoss="5.88" rerouteNo="0" devices="tripinfo_driver_55" vType="DEFAULT_VEHTYPE" speedFactor="1.14" vaporized="traci"/>
    <tripinfo id="driver_2" depart="1.00" departLane="779123575#1_0" departPos="0.10" departSpeed="0.00" departDelay="0.00" arrival="22.00" arrivalLane="779123575#1_1" arrivalPos="0.10" arrivalSpeed="0.00" duration="21.00" routeLength="0.00" waitingTime="20.00" waitingCount="1" stopTime="0.00" timeLoss="20.00" rerouteNo="0" devices="tripinfo_driver_2" vType="DEFAULT_VEHTYPE" speedFactor="1.03" vaporized="traci"/>
    <tripinfo id="driver_33" depart="4.00" departLane="406946351_0" departPos="5.10" departSpeed="0.00" departDelay="0.00" arrival="24.00" arrivalLane="779123575#0_1" arrivalPos="38.70" arrivalSpeed="3.26" duration="20.00" routeLength="111.71" waitingTime="2.00" waitingCount="1" stopTime="0.00" timeLoss="13.78" rerouteNo="0" devices="tripinfo_driver_33" vType="DEFAULT_VEHTYPE" speedFactor="1.02" vaporized="traci"/>
    <tripinfo id="driver_47" depart="5.00" departLane="-88572965#2_0" departPos="0.23" departSpeed="0.00" departDelay="0.00" arrival="24.00" arrivalLane="111560679#1_0" arrivalPos="74.32" arrivalSpeed="22.50" duration="19.00" routeLength="268.94" waitingTime="0.00" waitingCount="0" stopTime="0.00" timeLoss="4.82" rerouteNo="0" devices="tripinfo_driver_47" vType="DEFAULT_VEHTYPE" speedFactor="0.85" vaporized="traci"/>
    <tripinfo id="driver_9" depart="2.00" departLane="-8916564_0" departPos="5.10" departSpeed="0.00" departDelay="0.00" arrival="25.00" arrivalLane="28805008_0" arrivalPos="2.66" arrivalSpeed="8.37" duration="23.00" routeLength="177.37" waitingTime="0.00" waitingCount="0" stopTime="0.00" timeLoss="8.39" rerouteNo="0" devices="tripinfo_driver_9" vType="DEFAULT_VEHTYPE" speedFactor="1.03" vaporized="traci"/>
    <tripinfo id="driver_98" depart="10.00" departLane="-28841115#5_0" departPos="4.53" departSpeed="0.00" departDelay="0.00" arrival="25.00" arrivalLane="329596844#3_1" arrivalPos="10.34" arrivalSpeed="7.41" duration="15.00" routeLength="109.97" waitingTime="0.00" waitingCount="0" stopTime="0.00" timeLoss="4.74" rerouteNo="0" devices="tripinfo_driver_98" vType="DEFAULT_VEHTYPE" speedFactor="0.96" vaporized="traci"/>
    <tripinfo id="driver_109" depart="16.00" departLane="-88572914#2_0" departPos="0.85" departSpeed="0.00" departDelay="0.00" arrival="25.00" arrivalLane="-88572914#1_0" arrivalPos="72.12" arrivalSpeed="15.81" duration="9.00" routeLength="72.22" waitingTime="0.00" waitingCount="0" stopTime="0.00" timeLoss="5.63" rerouteNo="0" devices="tripinfo_driver_109" vType="DEFAULT_VEHTYPE" speedFactor="1.10" vaporized="traci"/>
    <tripinfo id="driver_112" depart="18.00" departLane="-425516658_0" departPos="5.10" departSpeed="0.00" departDelay="0.00" arrival="26.00" arrivalLane="-425516658_0" arrivalPos="57.88" arrivalSpeed="13.41" duration="8.00" routeLength="52.78" waitingTime="0.00" waitingCount="0" stopTime="0.00" timeLoss="3.22" rerouteNo="0" devices="tripinfo_driver_112" vType="DEFAULT_VEHTYPE" speedFactor="1.00" vaporized="traci"/>
    <tripinfo id="driver_16" depart="2.00" departLane="1035093272_0" departPos="5.10" departSpeed="0.00" departDelay="0.00" arrival="27.00" arrivalLane=":65326744_5_0" arrivalPos="4.68" arrivalSpeed="5.38" duration="25.00" routeLength="157.14" waitingTime="0.00" waitingCount="0" stopTime="0.00" timeLoss="4.59" rerouteNo="0" devices="tripinfo_driver_16" vType="DEFAULT_VEHTYPE" speedFactor="0.94" vaporized="traci"/>
    <tripinfo id="driver_67" depart="7.00" departLane="254758115#4_0" departPos="5.10" departSpeed="0.00" departDelay="0.00" arrival="27.00" arrivalLane="968937450#1_0" arrivalPos="40.89" arrivalSpeed="12.69" duration="20.00" routeLength="174.87" waitingTime="0.00" waitingCount="0" stopTime="0.00" timeLoss="7.41" rerouteNo="0" devices="tripinfo_driver_67" vType="DEFAULT_VEHTYPE" speedFactor="1.02" vaporized="traci"/>
    <tripinfo id="driver_78" depart="8.00" departLane="-254756526#2_0" departPos="0.11" departSpeed="0.00" departDelay="0.00" arrival="27.00" arrivalLane="-254971068#1_0" arrivalPos="73.64" arrivalSpeed="15.73" duration="19.00" routeLength="279.04" waitingTime="0.00" waitingCount="0" stopTime="0.00" timeLoss="5.42" rerouteNo="1" devices="tripinfo_driver_78" vType="DEFAULT_VEHTYPE" speedFactor="1.00" vaporized="traci"/>
    <tripinfo id="driver_84" depart="8.00" departLane="225847522_0" departPos="5.10" departSpeed="0.00" departDelay="0.00" arrival="27.00" arrivalLane="225847522_0" arrivalPos="89.20" arrivalSpeed="0.00" duration="19.00" routeLength="84.10" waitingTime="4.00" waitingCount="1" stopTime="0.00" timeLoss="8.98" rerouteNo="0" devices="tripinfo_driver_84" vType="DEFAULT_VEHTYPE" speedFactor="1.04" vaporized="traci"/>
    <tripinfo id="driver_40" depart="4.00" departLane="417226858#1_0" departPos="5.10" departSpeed="0.00" departDelay="0.00" arrival="28.00" arrivalLane="417226858#3_0" arrivalPos="89.50" arrivalSpeed="9.36" duration="24.00" routeLength="194.76" waitingTime="0.00" waitingCount="0" stopTime="0.00" timeLoss="3.05" rerouteNo="0" devices="tripinfo_driver_40" vType="DEFAULT_VEHTYPE" speedFactor="1.09" vaporized="traci"/>
    <tripinfo id="driver_54" depart="6.00" departLane="-23924509_0" departPos="5.10" departSpeed="0.00" departDelay="0.00" arrival="28.00" arrivalLane=":65328743_1_0" arrivalPos="10.31" arrivalSpeed="12.21" duration="22.00" routeLength="179.44" waitingTime="0.00" waitingCount="0" stopTime="0.00" timeLoss="6.02" rerouteNo="0" devices="tripinfo_driver_54" vType="DEFAULT_VEHTYPE" speedFactor="0.90" vaporized="traci"/>
    <tripinfo id="driver_80" depart="8.00" departLane="254466695_0" departPos="5.10" departSpeed="0.00" departDelay="0.00" arrival="28.00" arrivalLane="397269730_0" arrivalPos="44.94" arrivalSpeed="13.95" duration="20.00" routeLength="175.22" waitingTime="0.00" waitingCount="0" stopTime="0.00" timeLoss="7.00" rerouteNo="0" devices="tripinfo_driver_80" vType="DEFAULT_VEHTYPE" speedFactor="0.97" vaporized="traci"/>
    <tripinfo id="driver_92" depart="9.00" departLane="254758125#0_0" departPos="0.36" departSpeed="0.00" departDelay="0.00" arrival="28.00" arrivalLane="254758125#1_0" arrivalPos="89.00" arrivalSpeed="0.00" duration="19.00" routeLength="89.30" waitingTime="5.00" waitingCount="1" stopTime="0.00" timeLoss="8.55" rerouteNo="0" devices="tripinfo_driver_92" vType="DEFAULT_VEHTYPE" speedFactor="1.06" vaporized="traci"/>
    <tripinfo id="driver_24" depart="3.00" departLane="-25372932#4_0" departPos="5.10" departSpeed="0.00" departDelay="0.00" arrival="29.00" arrivalLane="425516617#6_0" arrivalPos="50.02" arrivalSpeed="14.33" duration="26.00" routeLength="240.43" waitingTime="0.00" waitingCount="0" stopTime="0.00" timeLoss="6.77" rerouteNo="0" devices="tripinfo_driver_24" vType="DEFAULT_VEHTYPE" speedFactor="0.92" vaporized="traci"/>
    <tripinfo id="driver_57" depart="6.00" departLane="417099340#2_0" departPos="0.35" departSpeed="0.00" departDelay="0.00" arrival="29.00" arrivalLane="417101710#0_0" arrivalPos="10.83" arrivalSpeed="0.00" duration="23.00" routeLength="49.39" waitingTime="13.00" waitingCount="1" stopTime="0.00" timeLoss="19.01" rerouteNo="0" devices="tripinfo_driver_57" vType="DEFAULT_VEHTYPE" speedFactor="0.97" vaporized="traci"/>
    <tripinfo id="driver_77" depart="8.00" departLane="598020856#0_0" departPos="1.66" departSpeed="0.00" departDelay="0.00" arrival="29.00" arrivalLane="598020856#1_2" arrivalPos="85.79" arrivalSpeed="0.00" duration="21.00" routeLength="86.06" waitingTime="9.00" waitingCount="1" stopTime="0.00" timeLoss="16.26" rerouteNo="0" devices="tripinfo_driver_77" vType="DEFAULT_VEHTYPE" speedFactor="1.03" vaporized="traci"/>
    <tripinfo id="driver_0" depart="1.00" departLane="-34128712#1_0" departPos="5.10" departSpeed="0.00" departDelay="0.00" arrival="29.00" arrivalLane="34128712#1_0" arrivalPos="120.04" arrivalSpeed="12.09" duration="28.00" routeLength="252.84" waitingTime="0.00" waitingCount="0" stopTime="0.00" timeLoss="7.68" rerouteNo="0" devices="tripinfo_driver_0" vType="DEFAULT_VEHTYPE" speedFactor="1.01" vaporized="traci"/>
    <tripinfo id="driver_8" depart="2.00" departLane="-8917205#1_0" departPos="5.10" departSpeed="0.00" departDelay="0.00" arrival="30.00" arrivalLane="1050287139_0" arrivalPos="5.10" arrivalSpeed="11.82" duration="28.00" routeLength="266.39" waitingTime="0.00" waitingCount="0" stopTime="0.00" timeLoss="4.83" rerouteNo="0" devices="tripinfo_driver_8" vType="DEFAULT_VEHTYPE" speedFactor="1.09" vaporized="traci"/>
    <tripinfo id="driver_51" depart="5.00" departLane="1039057816_0" departPos="5.10" departSpeed="0.00" departDelay="0.00" arrival="30.00" arrivalLane="1053810141_2" arrivalPos="19.92" arrivalSpeed="0.00" duration="25.00" routeLength="79.57" waitingTime="12.00" waitingCount="1" stopTime="0.00" timeLoss="15.88" rerouteNo="0" devices="tripinfo_driver_51" vType="DEFAULT_VEHTYPE" speedFactor="1.10" vaporized="traci"/>
    <tripinfo id="driver_69" depart="7.00" departLane="-297445459_0" departPos="5.10" departSpeed="0.00" departDelay="0.00" arrival="30.00" arrivalLane="-781130063_0" arrivalPos="61.31" arrivalSpeed="7.93" duration="23.00" routeLength="159.08" waitingTime="0.00" waitingCount="0" stopTime="0.00" timeLoss="3.07" rerouteNo="0" devices="tripinfo_driver_69" vType="DEFAULT_VEHTYPE" speedFactor="0.94" vaporized="traci"/>
    <tripinfo id="driver_71" depart="7.00" departLane="-225806043#1_0" departPos="5.10" departSpeed="0.00" departDelay="0.00" arrival="30.00" arrivalLane="934194966#1_0" arrivalPos="2.30" arrivalSpeed="0.20" duration="23.00" routeLength="271.11" waitingTime="0.00" waitingCount="0" stopTime="0.00" timeLoss="8.44" rerouteNo="0" devices="tripinfo_driver_71" vType="DEFAULT_VEHTYPE" speedFactor="0.96" vaporized="traci"/>
    <tripinfo id="driver_31" depart="4.00" departLane="620169744#0_0" departPos="5.10" departSpeed="0.00" departDelay="0.00" arrival="31.00" arrivalLane="620169744#1_0" arrivalPos="0.53" arrivalSpeed="0.00" duration="27.00" routeLength="125.78" waitingTime="11.00" waitingCount="1" stopTime="0.00" timeLoss="18.27" rerouteNo="0" devices="tripinfo_driver_31" vType="DEFAULT_VEHTYPE" speedFactor="1.17" vaporized="traci"/>
    <tripinfo id="driver_42" depart="5.00" departLane="27054209_0" departPos="5.10" departSpeed="0.00" departDelay="0.00" arrival="31.00" arrivalLane="1041357578#1_0" arrivalPos="0.46" arrivalSpeed="0.00" duration="26.00" routeLength="121.37" waitingTime="10.00" waitingCount="1" stopTime="0.00" timeLoss="19.77" rerouteNo="0" devices="tripinfo_driver_42" vType="DEFAULT_VEHTYPE" speedFactor="1.04" vaporized="traci"/>
    <tripinfo id="driver_59" depart="6.00" departLane="-674757876#2_0" departPos="1.63" departSpeed="0.00" departDelay="0.00" arrival="31.00" arrivalLane="502795940#1_0" arrivalPos="1.42" arrivalSpeed="6.20" duration="25.00" routeLength="238.49" waitingTime="0.00" waitingCount="0" stopTime="0.00" timeLoss="9.27" rerouteNo="1" devices="tripinfo_driver_59" vType="DEFAULT_VEHTYPE" speedFactor="1.12" vaporized="traci"/>
    <tripinfo id="driver_82" depart="8.00" departLane="417101713#0_0" departPos="5.10" departSpeed="0.00" departDelay="0.00" arrival="31.00" arrivalLane="1024170338_0" arrivalPos="23.67" arrivalSpeed="17.08" duration="23.00" routeLength="209.57" waitingTime="0.00" waitingCount="0" stopTime="0.00" timeLoss="11.82" rerouteNo="0" devices="tripinfo_driver_82" vType="DEFAULT_VEHTYPE" speedFactor="0.98" vaporized="traci"/>
    <tripinfo id="driver_14" depart="2.00" departLane="144489134#2_0" departPos="5.10" departSpeed="0.00" departDelay="0.00" arrival="31.00" arrivalLane="290080810#1_1" arrivalPos="87.24" arrivalSpeed="0.00" duration="29.00" routeLength="220.25" waitingTime="4.00" waitingCount="1" stopTime="0.00" timeLoss="16.71" rerouteNo="0" devices="tripinfo_driver_14" vType="DEFAULT_VEHTYPE" speedFactor="0.88" vaporized="traci"/>
    <tripinfo id="driver_19" depart="3.00" departLane="-146155465#1_0" departPos="5.10" departSpeed="0.00" departDelay="0.00" arrival="32.00" arrivalLane="146155465#1_0" arrivalPos="107.22" arrivalSpeed="11.22" duration="29.00" routeLength="236.04" waitingTime="0.00" waitingCount="0" stopTime="0.00" timeLoss="5.88" rerouteNo="0" devices="tripinfo_driver_19" vType="DEFAULT_VEHTYPE" speedFactor="1.01" vaporized="traci"/>
    <tripinfo id="driver_25" depart="3.00" departLane="29023741#0_0" departPos="5.10" departSpeed="0.00" departDelay="0.00" arrival="33.00" arrivalLane="29023741#1_0" arrivalPos="1.75" arrivalSpeed="0.00" duration="30.00" routeLength="86.75" waitingTime="18.00" waitingCount="1" stopTime="0.00" timeLoss="22.42" rerouteNo="0" devices="tripinfo_driver_25" vType="DEFAULT_VEHTYPE" speedFactor="0.95" vaporized="traci"/>
    <tripinfo id="driver_56" depart="6.00" departLane="527857392#1_0" departPos="5.10" departSpeed="0.00" departDelay="0.00" arrival="33.00" arrivalLane="527857392#1_0" arrivalPos="86.52" arrivalSpeed="0.00" duration="27.00" routeLength="81.42" waitingTime="14.00" waitingCount="1" stopTime="0.00" timeLoss="18.89" rerouteNo="0" devices="tripinfo_driver_56" vType="DEFAULT_VEHTYPE" speedFactor="1.02" vaporized="traci"/>
    <tripinfo id="driver_63" depart="7.00" departLane="-30025866#1_0" departPos="5.10" departSpeed="0.00" departDelay="0.00" arrival="34.00" arrivalLane="-446598001#1_0" arrivalPos="31.85" arrivalSpeed="12.83" duration="27.00" routeLength="278.10" waitingTime="0.00" waitingCount="0" stopTime="0.00" timeLoss="9.63" rerouteNo="1" devices="tripinfo_driver_63" vType="DEFAULT_VEHTYPE" speedFactor="0.91" vaporized="traci"/>
    <tripinfo id="driver_60" depart="6.00" departLane="-770522074#2_0" departPos="0.10" departSpeed="0.00" departDelay="0.00" arrival="35.00" arrivalLane="770522074#5_0" arrivalPos="3.28" arrivalSpeed="0.25" duration="29.00" routeLength="281.33" waitingTime="0.00" waitingCount="0" stopTime="0.00" timeLoss="13.99" rerouteNo="0" devices="tripinfo_driver_60" vType="DEFAULT_VEHTYPE" speedFactor="1.02" vaporized="traci"/>
    <tripinfo id="driver_72" depart="7.00" departLane="797255352#1_0" departPos="0.72" departSpeed="0.00" departDelay="0.00" arrival="35.00" arrivalLane="797255352#1_2" arrivalPos="0.72" arrivalSpeed="0.00" duration="28.00" routeLength="0.00" waitingTime="27.00" waitingCount="1" stopTime="0.00" timeLoss="27.00" rerouteNo="0" devices="tripinfo_driver_72" vType="DEFAULT_VEHTYPE" speedFactor="0.98" vaporized="traci"/>
    <tripinfo id="driver_36" depart="4.00" departLane="254758124#0_0" departPos="5.10" departSpeed="0.00" departDelay="0.00" arrival="36.00" arrivalLane="254758124#1_0" arrivalPos="0.45" arrivalSpeed="0.00" duration="32.00" routeLength="82.39" waitingTime="17.00" waitingCount="1" stopTime="0.00" timeLoss="22.64" rerouteNo="0" devices="tripinfo_driver_36" vType="DEFAULT_VEHTYPE" speedFactor="1.10" vaporized="traci"/>
    <tripinfo id="driver_39" depart="4.00" departLane="771447675_0" departPos="5.10" departSpeed="0.00" departDelay="0.00" arrival="36.00" arrivalLane="771447675_0" arrivalPos="92.03" arrivalSpeed="0.00" duration="32.00" routeLength="86.93" waitingTime="18.00" waitingCount="1" stopTime="0.00" timeLoss="20.84" rerouteNo="0" devices="tripinfo_driver_39" vType="DEFAULT_VEHTYPE" speedFactor="0.96" vaporized="traci"/>
    <tripinfo id="driver_30" depart="4.00" departLane="-706527721#1_0" departPos="0.20" departSpeed="0.00" departDelay="0.00" arrival="37.00" arrivalLane="-91182067#0_0" arrivalPos="0.80" arrivalSpeed="0.00" duration="33.00" routeLength="87.43" waitingTime="20.00" waitingCount="1" stopTime="0.00" timeLoss="24.22" rerouteNo="1" devices="tripinfo_driver_30" vType="DEFAULT_VEHTYPE" speedFactor="1.01" vaporized="traci"/>
    <tripinfo id="driver_50" depart="5.00" departLane="-88572932#1_0" departPos="5.10" departSpeed="0.00" departDelay="0.00" arrival="37.00" arrivalLane="-688508137#0_1" arrivalPos="2.15" arrivalSpeed="8.00" duration="32.00" routeLength="442.49" waitingTime="0.00" waitingCount="0" stopTime="0.00" timeLoss="12.69" rerouteNo="0" devices="tripinfo_driver_50" vType="DEFAULT_VEHTYPE" speedFactor="1.02" vaporized="traci"/>
    <tripinfo id="driver_68" depart="7.00" departLane="417400763#0_0" departPos="5.10" departSpeed="0.00" departDelay="0.00" arrival="37.00" arrivalLane="417400763#1_0" arrivalPos="0.36" arrivalSpeed="0.00" duration="30.00" routeLength="38.48" waitingTime="20.00" waitingCount="1" stopTime="0.00" timeLoss="27.22" rerouteNo="0" devices="tripinfo_driver_68" vType="DEFAULT_VEHTYPE" speedFactor="0.97" vaporized="traci"/>
    <tripinfo id="driver_7" depart="2.00" departLane="-331111652#0_0" departPos="5.10" departSpeed="0.00" departDelay="0.00" arrival="38.00" arrivalLane="-446598043#0_0" arrivalPos="2.65" arrivalSpeed="0.00" duration="36.00" routeLength="62.72" waitingTime="25.00" waitingCount="1" stopTime="0.00" timeLoss="29.73" rerouteNo="0" devices="tripinfo_driver_7" vType="DEFAULT_VEHTYPE" speedFactor="0.86" vaporized="traci"/>
    <tripinfo id="driver_13" depart="2.00" departLane="224316520_0" departPos="5.10" departSpeed="0.00" departDelay="0.00" arrival="38.00" arrivalLane="406944778_0" arrivalPos="27.17" arrivalSpeed="0.00" duration="36.00" routeLength="79.65" waitingTime="23.00" waitingCount="1" stopTime="0.00" timeLoss="31.91" rerouteNo="0" devices="tripinfo_driver_13" vType="DEFAULT_VEHTYPE" speedFactor="0.93" vaporized="traci"/>
    <tripinfo id="driver_38" depart="4.00" departLane="797255352#0_0" departPos="5.10" departSpeed="0.00" departDelay="0.00" arrival="38.00" arrivalLane="797255352#0_2" arrivalPos="88.66" arrivalSpeed="0.50" duration="34.00" routeLength="83.56" waitingTime="17.00" waitingCount="1" stopTime="0.00" timeLoss="23.93" rerouteNo="0" devices="tripinfo_driver_38" vType="DEFAULT_VEHTYPE" speedFactor="1.03" vaporized="traci"/>