<?xml version="1.0" encoding="UTF-8"?>

<<<<<<< HEAD
<!-- generated on 2022-02-17 10:19:04 by Eclipse SUMO GUI Version 1.10.0
=======
<!-- generated on 22/06/2021 12:21:48 by Eclipse SUMO GUI Version 1.9.0
>>>>>>> b3a48549333f0579ab7e32ed21e16698643a4fe6
<configuration xmlns:xsi="http://www.w3.org/2001/XMLSchema-instance" xsi:noNamespaceSchemaLocation="http://sumo.dlr.de/xsd/sumoConfiguration.xsd">

    <input>
        <net-file value="net_config/manhattan.net.xml"/>
        <route-files value="net_config/random_trips.trips.xml"/>
        <additional-files value="net_config/add.add.xml"/>
    </input>

    <output>
        <tripinfo-output value="net_config/tripinfo.xml"/>
    </output>

    <time>
        <step-length value="1"/>
    </time>

    <processing>
        <time-to-teleport value="0"/>
    </processing>

    <taxi_device>
        <device.taxi.dispatch-algorithm value="traci"/>
        <device.taxi.idle-algorithm value="randomCircling"/>
    </taxi_device>

    <traci_server>
<<<<<<< HEAD
        <remote-port value="58849"/>
=======
        <remote-port value="59888"/>
>>>>>>> b3a48549333f0579ab7e32ed21e16698643a4fe6
    </traci_server>

    <gui_only>
        <gui-settings-file value="net_config/gui-settings.cfg"/>
        <tracker-interval value="1"/>
    </gui_only>

</configuration>
-->

<tripinfos xmlns:xsi="http://www.w3.org/2001/XMLSchema-instance" xsi:noNamespaceSchemaLocation="http://sumo.dlr.de/xsd/tripinfo_file.xsd">
<<<<<<< HEAD
    <tripinfo id="driver_6" depart="14.00" departLane="gneE0_0" departPos="84.14" departSpeed="0.00" departDelay="0.00" arrival="18.00" arrivalLane=":gneJ1_4_0" arrivalPos="6.66" arrivalSpeed="5.92" duration="4.00" routeLength="12.12" waitingTime="0.00" waitingCount="0" stopTime="0.00" timeLoss="2.08" rerouteNo="5" devices="tripinfo_driver_6 taxi_driver_6" vType="driver" speedFactor="0.97" vaporized="traci">
        <taxi customers="0" occupiedDistance="0.00" occupiedTime="0.00"/>
    </tripinfo>
    <tripinfo id="driver_1" depart="3.00" departLane="-gneE153_0" departPos="3.73" departSpeed="0.00" departDelay="0.00" arrival="19.00" arrivalLane="gneE63_0" arrivalPos="36.69" arrivalSpeed="11.39" duration="16.00" routeLength="132.75" waitingTime="0.00" waitingCount="0" stopTime="0.00" timeLoss="4.55" rerouteNo="18" devices="tripinfo_driver_1 taxi_driver_1" vType="driver" speedFactor="0.99" vaporized="traci">
        <taxi customers="0" occupiedDistance="0.00" occupiedTime="0.00"/>
    </tripinfo>
    <tripinfo id="driver_2" depart="4.00" departLane="gneE313_0" departPos="46.68" departSpeed="0.00" departDelay="0.00" arrival="19.00" arrivalLane="gneE475_0" arrivalPos="77.68" arrivalSpeed="18.26" duration="15.00" routeLength="125.64" waitingTime="0.00" waitingCount="0" stopTime="0.00" timeLoss="5.68" rerouteNo="17" devices="tripinfo_driver_2 taxi_driver_2" vType="driver" speedFactor="1.04" vaporized="traci">
        <taxi customers="0" occupiedDistance="0.00" occupiedTime="0.00"/>
    </tripinfo>
    <tripinfo id="driver_3" depart="6.00" departLane="gneE404_0" departPos="38.70" departSpeed="0.00" departDelay="0.00" arrival="23.00" arrivalLane="gneE431_0" arrivalPos="84.84" arrivalSpeed="7.98" duration="17.00" routeLength="140.77" waitingTime="0.00" waitingCount="0" stopTime="0.00" timeLoss="7.42" rerouteNo="19" devices="tripinfo_driver_3 taxi_driver_3" vType="driver" speedFactor="1.10" vaporized="traci">
        <taxi customers="0" occupiedDistance="0.00" occupiedTime="0.00"/>
    </tripinfo>
    <tripinfo id="driver_4" depart="10.00" departLane="-gneE129_0" departPos="5.16" departSpeed="0.00" departDelay="0.00" arrival="31.00" arrivalLane="-gneE127_0" arrivalPos="9.35" arrivalSpeed="12.67" duration="21.00" routeLength="204.19" waitingTime="0.00" waitingCount="0" stopTime="0.00" timeLoss="5.64" rerouteNo="25" devices="tripinfo_driver_4 taxi_driver_4" vType="driver" speedFactor="1.02" vaporized="traci">
        <taxi customers="0" occupiedDistance="0.00" occupiedTime="0.00"/>
    </tripinfo>
    <tripinfo id="driver_10" depart="20.00" departLane="gneE298_0" departPos="20.66" departSpeed="0.00" departDelay="0.00" arrival="31.00" arrivalLane=":gneJ164_5_0" arrivalPos="9.29" arrivalSpeed="11.15" duration="11.00" routeLength="74.23" waitingTime="0.00" waitingCount="0" stopTime="0.00" timeLoss="3.55" rerouteNo="12" devices="tripinfo_driver_10 taxi_driver_10" vType="driver" speedFactor="0.94" vaporized="traci">
        <taxi customers="0" occupiedDistance="0.00" occupiedTime="0.00"/>
    </tripinfo>
    <tripinfo id="driver_11" depart="22.00" departLane="-gneE352_0" departPos="51.04" departSpeed="0.00" departDelay="0.00" arrival="34.00" arrivalLane="gneE300_0" arrivalPos="35.18" arrivalSpeed="13.23" duration="12.00" routeLength="78.77" waitingTime="0.00" waitingCount="0" stopTime="0.00" timeLoss="6.45" rerouteNo="14" devices="tripinfo_driver_11 taxi_driver_11" vType="driver" speedFactor="1.05" vaporized="traci">
        <taxi customers="0" occupiedDistance="0.00" occupiedTime="0.00"/>
    </tripinfo>
    <tripinfo id="driver_12" depart="26.00" departLane="gneE331_0" departPos="13.00" departSpeed="0.00" departDelay="0.00" arrival="34.00" arrivalLane="gneE331_0" arrivalPos="66.45" arrivalSpeed="13.59" duration="8.00" routeLength="53.46" waitingTime="0.00" waitingCount="0" stopTime="0.00" timeLoss="4.29" rerouteNo="8" devices="tripinfo_driver_12 taxi_driver_12" vType="driver" speedFactor="0.99" vaporized="traci">
        <taxi customers="0" occupiedDistance="0.00" occupiedTime="0.00"/>
    </tripinfo>
    <tripinfo id="driver_14" depart="27.00" departLane="-gneE268_0" departPos="79.45" departSpeed="0.00" departDelay="0.00" arrival="35.00" arrivalLane="gneE238_0" arrivalPos="28.17" arrivalSpeed="8.82" duration="8.00" routeLength="43.36" waitingTime="0.00" waitingCount="0" stopTime="0.00" timeLoss="2.05" rerouteNo="10" devices="tripinfo_driver_14 taxi_driver_14" vType="driver" speedFactor="0.91" vaporized="traci">
        <taxi customers="0" occupiedDistance="0.00" occupiedTime="0.00"/>
    </tripinfo>
    <tripinfo id="driver_7" depart="15.00" departLane="gneE417_0" departPos="20.26" departSpeed="0.00" departDelay="0.00" arrival="36.00" arrivalLane=":gneJ216_11_0" arrivalPos="1.50" arrivalSpeed="6.00" duration="21.00" routeLength="166.63" waitingTime="0.00" waitingCount="0" stopTime="0.00" timeLoss="5.77" rerouteNo="25" devices="tripinfo_driver_7 taxi_driver_7" vType="driver" speedFactor="0.89" vaporized="traci">
        <taxi customers="0" occupiedDistance="0.00" occupiedTime="0.00"/>
    </tripinfo>
    <tripinfo id="driver_15" depart="31.00" departLane="-gneE543_0" departPos="48.55" departSpeed="0.00" departDelay="0.00" arrival="36.00" arrivalLane="-gneE543_0" arrivalPos="71.87" arrivalSpeed="9.33" duration="5.00" routeLength="23.32" waitingTime="0.00" waitingCount="0" stopTime="0.00" timeLoss="2.69" rerouteNo="5" devices="tripinfo_driver_15 taxi_driver_15" vType="driver" speedFactor="0.99" vaporized="traci">
        <taxi customers="0" occupiedDistance="0.00" occupiedTime="0.00"/>
    </tripinfo>
    <tripinfo id="driver_9" depart="19.00" departLane="gneE281_0" departPos="19.10" departSpeed="0.00" departDelay="0.00" arrival="37.00" arrivalLane="-gneE251_0" arrivalPos="72.73" arrivalSpeed="12.15" duration="18.00" routeLength="148.26" waitingTime="0.00" waitingCount="0" stopTime="0.00" timeLoss="5.13" rerouteNo="20" devices="tripinfo_driver_9 taxi_driver_9" vType="driver" speedFactor="1.06" vaporized="traci">
        <taxi customers="0" occupiedDistance="0.00" occupiedTime="0.00"/>
    </tripinfo>
    <personinfo id="customer_2" depart="23.00" type="DEFAULT_PEDTYPE">
        <ride waitingTime="15.00" vehicle="NULL" depart="-1" arrival="38.00" arrivalPos="85.60" duration="38.00" routeLength="-1.00" timeLoss="-0.00"/>
        <stop duration="0.00" arrival="38.00" arrivalPos="82.00" actType="last stage removed"/>
    </personinfo>
    <tripinfo id="driver_8" depart="19.00" departLane="-gneE103_0" departPos="22.60" departSpeed="0.00" departDelay="0.00" arrival="42.00" arrivalLane="-gneE155_0" arrivalPos="20.82" arrivalSpeed="11.76" duration="23.00" routeLength="198.00" waitingTime="0.00" waitingCount="0" stopTime="0.00" timeLoss="9.32" rerouteNo="28" devices="tripinfo_driver_8 taxi_driver_8" vType="driver" speedFactor="1.02" vaporized="traci">
        <taxi customers="0" occupiedDistance="0.00" occupiedTime="0.00"/>
    </tripinfo>
    <tripinfo id="driver_13" depart="26.00" departLane="-gneE108_0" departPos="2.38" departSpeed="0.00" departDelay="0.00" arrival="42.00" arrivalLane="gneE207_0" arrivalPos="28.79" arrivalSpeed="11.34" duration="16.00" routeLength="121.04" waitingTime="0.00" waitingCount="0" stopTime="0.00" timeLoss="5.68" rerouteNo="18" devices="tripinfo_driver_13 taxi_driver_13" vType="driver" speedFactor="0.94" vaporized="traci">
        <taxi customers="0" occupiedDistance="0.00" occupiedTime="0.00"/>
    </tripinfo>
    <tripinfo id="driver_16" depart="32.00" departLane="-gneE212_0" departPos="4.01" departSpeed="0.00" departDelay="0.00" arrival="42.00" arrivalLane="-gneE212_0" arrivalPos="79.57" arrivalSpeed="8.85" duration="10.00" routeLength="75.56" waitingTime="0.00" waitingCount="0" stopTime="0.00" timeLoss="5.12" rerouteNo="10" devices="tripinfo_driver_16 taxi_driver_16" vType="driver" speedFactor="0.97" vaporized="traci">
        <taxi customers="0" occupiedDistance="0.00" occupiedTime="0.00"/>
    </tripinfo>
    <personinfo id="customer_3" depart="24.00" type="DEFAULT_PEDTYPE">
        <ride waitingTime="19.00" vehicle="NULL" depart="-1" arrival="43.00" arrivalPos="85.60" duration="43.00" routeLength="-1.00" timeLoss="-0.00"/>
        <stop duration="0.00" arrival="43.00" arrivalPos="58.00" actType="last stage removed"/>
    </personinfo>
    <personinfo id="customer_8" depart="44.00" type="DEFAULT_PEDTYPE">
        <ride waitingTime="2.00" vehicle="NULL" depart="-1" arrival="46.00" arrivalPos="85.60" duration="46.00" routeLength="-1.00" timeLoss="-0.00"/>
        <stop duration="0.00" arrival="46.00" arrivalPos="48.00" actType="last stage removed"/>
    </personinfo>
    <personinfo id="customer_10" depart="46.00" type="DEFAULT_PEDTYPE">
        <ride waitingTime="3.00" vehicle="NULL" depart="-1" arrival="49.00" arrivalPos="85.60" duration="49.00" routeLength="-1.00" timeLoss="-0.00"/>
        <stop duration="0.00" arrival="49.00" arrivalPos="40.00" actType="last stage removed"/>
    </personinfo>
    <personinfo id="customer_11" depart="47.00" type="DEFAULT_PEDTYPE">
        <ride waitingTime="2.00" vehicle="NULL" depart="-1" arrival="49.00" arrivalPos="85.60" duration="49.00" routeLength="-1.00" timeLoss="-0.00"/>
        <stop duration="0.00" arrival="49.00" arrivalPos="25.00" actType="last stage removed"/>
    </personinfo>
    <personinfo id="customer_12" depart="50.00" type="DEFAULT_PEDTYPE">
        <ride waitingTime="2.00" vehicle="NULL" depart="-1" arrival="52.00" arrivalPos="85.60" duration="52.00" routeLength="-1.00" timeLoss="-0.00"/>
        <stop duration="0.00" arrival="52.00" arrivalPos="47.00" actType="last stage removed"/>
    </personinfo>
    <tripinfo id="driver_21" depart="41.00" departLane="gneE140_0" departPos="79.17" departSpeed="0.00" departDelay="0.00" arrival="56.00" arrivalLane="gneE43_0" arrivalPos="42.97" arrivalSpeed="17.70" duration="15.00" routeLength="158.43" waitingTime="0.00" waitingCount="0" stopTime="0.00" timeLoss="4.88" rerouteNo="19" devices="tripinfo_driver_21 taxi_driver_21" vType="driver" speedFactor="1.05" vaporized="traci">
        <taxi customers="0" occupiedDistance="0.00" occupiedTime="0.00"/>
    </tripinfo>
    <personinfo id="customer_9" depart="45.00" type="DEFAULT_PEDTYPE">
        <ride waitingTime="12.00" vehicle="NULL" depart="-1" arrival="57.00" arrivalPos="85.60" duration="57.00" routeLength="-1.00" timeLoss="-0.00"/>
        <stop duration="0.00" arrival="57.00" arrivalPos="53.00" actType="last stage removed"/>
    </personinfo>
    <personinfo id="customer_7" depart="44.00" type="DEFAULT_PEDTYPE">
        <ride waitingTime="15.00" vehicle="NULL" depart="-1" arrival="59.00" arrivalPos="85.60" duration="59.00" routeLength="-1.00" timeLoss="-0.00"/>
        <stop duration="0.00" arrival="59.00" arrivalPos="1.00" actType="last stage removed"/>
    </personinfo>
    <tripinfo id="driver_23" depart="54.00" departLane="-gneE357_0" departPos="3.65" departSpeed="0.00" departDelay="0.00" arrival="63.00" arrivalLane="-gneE357_0" arrivalPos="71.47" arrivalSpeed="13.12" duration="9.00" routeLength="67.82" waitingTime="0.00" waitingCount="0" stopTime="0.00" timeLoss="3.21" rerouteNo="9" devices="tripinfo_driver_23 taxi_driver_23" vType="driver" speedFactor="0.89" vaporized="traci">
        <taxi customers="0" occupiedDistance="0.00" occupiedTime="0.00"/>
    </tripinfo>
    <tripinfo id="driver_26" depart="58.00" departLane="-gneE530_0" departPos="36.88" departSpeed="0.00" departDelay="0.00" arrival="64.00" arrivalLane="-gneE530_0" arrivalPos="69.87" arrivalSpeed="10.57" duration="6.00" routeLength="32.99" waitingTime="0.00" waitingCount="0" stopTime="0.00" timeLoss="3.23" rerouteNo="6" devices="tripinfo_driver_26 taxi_driver_26" vType="driver" speedFactor="1.04" vaporized="traci">
        <taxi customers="0" occupiedDistance="0.00" occupiedTime="0.00"/>
    </tripinfo>
    <tripinfo id="driver_19" depart="39.00" departLane="gneE393_0" departPos="83.62" departSpeed="0.00" departDelay="0.00" arrival="66.00" arrivalLane="-gneE382_0" arrivalPos="39.63" arrivalSpeed="9.33" duration="27.00" routeLength="245.28" waitingTime="0.00" waitingCount="0" stopTime="0.00" timeLoss="7.62" rerouteNo="33" devices="tripinfo_driver_19 taxi_driver_19" vType="driver" speedFactor="0.94" vaporized="traci">
        <taxi customers="0" occupiedDistance="0.00" occupiedTime="0.00"/>
    </tripinfo>
    <tripinfo id="driver_25" depart="58.00" departLane="gneE140_0" departPos="56.78" departSpeed="0.00" departDelay="0.00" arrival="66.00" arrivalLane="gneE42_0" arrivalPos="0.82" arrivalSpeed="6.51" duration="8.00" routeLength="38.67" waitingTime="0.00" waitingCount="0" stopTime="0.00" timeLoss="3.40" rerouteNo="10" devices="tripinfo_driver_25 taxi_driver_25" vType="driver" speedFactor="1.01" vaporized="traci">
        <taxi customers="0" occupiedDistance="0.00" occupiedTime="0.00"/>
    </tripinfo>
    <tripinfo id="driver_31" depart="69.00" departLane="gneE13_0" departPos="0.07" departSpeed="0.00" departDelay="0.00" arrival="75.00" arrivalLane="gneE13_0" arrivalPos="24.25" arrivalSpeed="8.87" duration="6.00" routeLength="24.18" waitingTime="0.00" waitingCount="0" stopTime="0.00" timeLoss="3.76" rerouteNo="6" devices="tripinfo_driver_31 taxi_driver_31" vType="driver" speedFactor="0.97" vaporized="traci">
        <taxi customers="0" occupiedDistance="0.00" occupiedTime="0.00"/>
    </tripinfo>
    <tripinfo id="driver_32" depart="70.00" departLane="-gneE475_0" departPos="1.00" departSpeed="0.00" departDelay="0.00" arrival="77.00" arrivalLane="-gneE475_0" arrivalPos="47.30" arrivalSpeed="12.90" duration="7.00" routeLength="46.30" waitingTime="0.00" waitingCount="0" stopTime="0.00" timeLoss="2.95" rerouteNo="7" devices="tripinfo_driver_32 taxi_driver_32" vType="driver" speedFactor="1.01" vaporized="traci">
        <taxi customers="0" occupiedDistance="0.00" occupiedTime="0.00"/>
    </tripinfo>
    <tripinfo id="25" depart="25.00" departLane="-gneE479_0" departPos="5.10" departSpeed="0.00" departDelay="0.00" arrival="78.00" arrivalLane="-gneE313_0" arrivalPos="85.60" arrivalSpeed="9.57" duration="53.00" routeLength="580.29" waitingTime="0.00" waitingCount="0" stopTime="0.00" timeLoss="7.90" rerouteNo="1" devices="tripinfo_25 routing_25" vType="DEFAULT_VEHTYPE" speedFactor="0.97" vaporized=""/>
    <tripinfo id="driver_30" depart="65.00" departLane="-gneE249_0" departPos="41.32" departSpeed="0.00" departDelay="0.00" arrival="78.00" arrivalLane="-gneE16_0" arrivalPos="28.65" arrivalSpeed="12.44" duration="13.00" routeLength="87.12" waitingTime="0.00" waitingCount="0" stopTime="0.00" timeLoss="4.32" rerouteNo="15" devices="tripinfo_driver_30 taxi_driver_30" vType="driver" speedFactor="1.00" vaporized="traci">
        <taxi customers="0" occupiedDistance="0.00" occupiedTime="0.00"/>
    </tripinfo>
    <personinfo id="customer_15" depart="69.00" type="DEFAULT_PEDTYPE">
        <ride waitingTime="10.00" vehicle="NULL" depart="-1" arrival="79.00" arrivalPos="85.60" duration="79.00" routeLength="-1.00" timeLoss="-0.00"/>
        <stop duration="0.00" arrival="79.00" arrivalPos="56.00" actType="last stage removed"/>
    </personinfo>
    <tripinfo id="16" depart="16.00" departLane="gneE135_0" departPos="5.10" departSpeed="0.00" departDelay="0.00" arrival="80.00" arrivalLane="gneE71_0" arrivalPos="85.60" arrivalSpeed="7.36" duration="64.00" routeLength="563.97" waitingTime="0.00" waitingCount="0" stopTime="0.00" timeLoss="14.87" rerouteNo="1" devices="tripinfo_16 routing_16" vType="DEFAULT_VEHTYPE" speedFactor="0.91" vaporized=""/>
    <tripinfo id="driver_27" depart="62.00" departLane="-gneE268_0" departPos="50.73" departSpeed="0.00" departDelay="0.00" arrival="80.00" arrivalLane="gneE238_0" arrivalPos="83.44" arrivalSpeed="6.26" duration="18.00" routeLength="127.33" waitingTime="0.00" waitingCount="0" stopTime="0.00" timeLoss="4.46" rerouteNo="20" devices="tripinfo_driver_27 taxi_driver_27" vType="driver" speedFactor="0.95" vaporized="traci">
        <taxi customers="0" occupiedDistance="0.00" occupiedTime="0.00"/>
    </tripinfo>
    <tripinfo id="driver_33" depart="77.00" departLane="-gneE441_0" departPos="72.87" departSpeed="0.00" departDelay="0.00" arrival="82.00" arrivalLane=":gneJ254_6_0" arrivalPos="4.00" arrivalSpeed="5.84" duration="5.00" routeLength="16.73" waitingTime="0.00" waitingCount="0" stopTime="0.00" timeLoss="2.50" rerouteNo="6" devices="tripinfo_driver_33 taxi_driver_33" vType="driver" speedFactor="1.00" vaporized="traci">
        <taxi customers="0" occupiedDistance="0.00" occupiedTime="0.00"/>
    </tripinfo>
    <tripinfo id="10" depart="10.00" departLane="gneE412_0" departPos="5.10" departSpeed="0.00" departDelay="0.00" arrival="83.00" arrivalLane="gneE301_0" arrivalPos="85.60" arrivalSpeed="12.57" duration="73.00" routeLength="669.76" waitingTime="0.00" waitingCount="0" stopTime="0.00" timeLoss="20.82" rerouteNo="1" devices="tripinfo_10 routing_10" vType="DEFAULT_VEHTYPE" speedFactor="1.09" vaporized=""/>
    <tripinfo id="driver_28" depart="65.00" departLane="gneE393_0" departPos="83.97" departSpeed="0.00" departDelay="0.00" arrival="83.00" arrivalLane="gneE395_0" arrivalPos="51.36" arrivalSpeed="12.17" duration="18.00" routeLength="167.39" waitingTime="0.00" waitingCount="0" stopTime="0.00" timeLoss="6.19" rerouteNo="22" devices="tripinfo_driver_28 taxi_driver_28" vType="driver" speedFactor="1.01" vaporized="traci">
        <taxi customers="0" occupiedDistance="0.00" occupiedTime="0.00"/>
    </tripinfo>
    <tripinfo id="driver_29" depart="65.00" departLane="-gneE154_0" departPos="75.95" departSpeed="0.00" departDelay="0.00" arrival="83.00" arrivalLane="-gneE154_0" arrivalPos="85.50" arrivalSpeed="0.00" duration="18.00" routeLength="9.55" waitingTime="12.00" waitingCount="1" stopTime="0.00" timeLoss="16.49" rerouteNo="18" devices="tripinfo_driver_29 taxi_driver_29" vType="driver" speedFactor="1.05" vaporized="traci">
        <taxi customers="0" occupiedDistance="0.00" occupiedTime="0.00"/>
    </tripinfo>
    <tripinfo id="1" depart="1.00" departLane="-gneE381_0" departPos="5.10" departSpeed="0.00" departDelay="0.00" arrival="86.00" arrivalLane="-gneE327_0" arrivalPos="85.60" arrivalSpeed="16.34" duration="85.00" routeLength="874.50" waitingTime="0.00" waitingCount="0" stopTime="0.00" timeLoss="18.47" rerouteNo="1" devices="tripinfo_1 routing_1" vType="DEFAULT_VEHTYPE" speedFactor="0.94" vaporized=""/>
    <tripinfo id="28" depart="28.00" departLane="-gneE274_0" departPos="5.10" departSpeed="0.00" departDelay="0.00" arrival="86.00" arrivalLane="gneE333_0" arrivalPos="85.60" arrivalSpeed="8.64" duration="58.00" routeLength="569.55" waitingTime="0.00" waitingCount="0" stopTime="0.00" timeLoss="12.23" rerouteNo="1" devices="tripinfo_28 routing_28" vType="DEFAULT_VEHTYPE" speedFactor="0.95" vaporized=""/>
    <tripinfo id="driver_38" depart="87.00" departLane="-gneE71_0" departPos="49.61" departSpeed="0.00" departDelay="0.00" arrival="96.00" arrivalLane=":gneJ67_13_0" arrivalPos="4.54" arrivalSpeed="6.70" duration="9.00" routeLength="46.46" waitingTime="0.00" waitingCount="0" stopTime="0.00" timeLoss="4.47" rerouteNo="11" devices="tripinfo_driver_38 taxi_driver_38" vType="driver" speedFactor="1.02" vaporized="traci">
        <taxi customers="0" occupiedDistance="0.00" occupiedTime="0.00"/>
    </tripinfo>
    <tripinfo id="67" depart="67.00" departLane="-gneE186_0" departPos="5.10" departSpeed="0.00" departDelay="0.00" arrival="98.00" arrivalLane="-gneE85_0" arrivalPos="85.60" arrivalSpeed="11.30" duration="31.00" routeLength="275.13" waitingTime="0.00" waitingCount="0" stopTime="0.00" timeLoss="8.56" rerouteNo="1" devices="tripinfo_67 routing_67" vType="DEFAULT_VEHTYPE" speedFactor="1.11" vaporized=""/>
    <tripinfo id="34" depart="34.00" departLane="-gneE422_0" departPos="5.10" departSpeed="0.00" departDelay="0.00" arrival="99.00" arrivalLane="-gneE373_0" arrivalPos="85.60" arrivalSpeed="16.13" duration="65.00" routeLength="658.81" waitingTime="0.00" waitingCount="0" stopTime="0.00" timeLoss="17.57" rerouteNo="1" devices="tripinfo_34 routing_34" vType="DEFAULT_VEHTYPE" speedFactor="1.02" vaporized=""/>
    <tripinfo id="38" depart="38.00" departLane="gneE524_0" departPos="5.10" departSpeed="0.00" departDelay="0.00" arrival="100.00" arrivalLane="-gneE570_0" arrivalPos="85.60" arrivalSpeed="14.83" duration="62.00" routeLength="564.39" waitingTime="0.00" waitingCount="0" stopTime="0.00" timeLoss="14.38" rerouteNo="1" devices="tripinfo_38 routing_38" vType="DEFAULT_VEHTYPE" speedFactor="1.00" vaporized=""/>
    <tripinfo id="39" depart="39.00" departLane="-gneE370_0" departPos="5.10" departSpeed="0.00" departDelay="0.00" arrival="100.00" arrivalLane="-gneE351_0" arrivalPos="85.60" arrivalSpeed="9.96" duration="61.00" routeLength="569.34" waitingTime="0.00" waitingCount="0" stopTime="0.00" timeLoss="17.50" rerouteNo="1" devices="tripinfo_39 routing_39" vType="DEFAULT_VEHTYPE" speedFactor="1.07" vaporized=""/>
    <tripinfo id="0" depart="0.00" departLane="gneE241_0" departPos="5.10" departSpeed="0.00" departDelay="0.00" arrival="101.00" arrivalLane="-gneE123_0" arrivalPos="85.60" arrivalSpeed="9.25" duration="101.00" routeLength="1058.81" waitingTime="0.00" waitingCount="0" stopTime="0.00" timeLoss="27.81" rerouteNo="1" devices="tripinfo_0 routing_0" vType="DEFAULT_VEHTYPE" speedFactor="1.06" vaporized=""/>
    <tripinfo id="driver_43" depart="98.00" departLane="-gneE407_0" departPos="10.22" departSpeed="0.00" departDelay="0.00" arrival="101.00" arrivalLane="-gneE407_0" arrivalPos="15.80" arrivalSpeed="4.06" duration="3.00" routeLength="5.58" waitingTime="0.00" waitingCount="0" stopTime="0.00" timeLoss="1.42" rerouteNo="3" devices="tripinfo_driver_43 taxi_driver_43" vType="driver" speedFactor="1.06" vaporized="traci">
        <taxi customers="0" occupiedDistance="0.00" occupiedTime="0.00"/>
    </tripinfo>
    <tripinfo id="43" depart="43.00" departLane="gneE97_0" departPos="5.10" departSpeed="0.00" departDelay="0.00" arrival="103.00" arrivalLane="gneE107_0" arrivalPos="85.60" arrivalSpeed="17.54" duration="60.00" routeLength="559.02" waitingTime="0.00" waitingCount="0" stopTime="0.00" timeLoss="14.64" rerouteNo="1" devices="tripinfo_43 routing_43" vType="DEFAULT_VEHTYPE" speedFactor="0.92" vaporized=""/>
    <tripinfo id="driver_41" depart="93.00" departLane="-gneE260_0" departPos="67.88" departSpeed="0.00" departDelay="0.00" arrival="106.00" arrivalLane="-gneE294_0" arrivalPos="58.71" arrivalSpeed="14.73" duration="13.00" routeLength="85.45" waitingTime="0.00" waitingCount="0" stopTime="0.00" timeLoss="6.39" rerouteNo="15" devices="tripinfo_driver_41 taxi_driver_41" vType="driver" speedFactor="0.96" vaporized="traci">
        <taxi customers="0" occupiedDistance="0.00" occupiedTime="0.00"/>
    </tripinfo>
    <tripinfo id="27" depart="27.00" departLane="gneE250_0" departPos="5.10" departSpeed="0.00" departDelay="0.00" arrival="109.00" arrivalLane="gneE21_0" arrivalPos="85.60" arrivalSpeed="7.64" duration="82.00" routeLength="780.08" waitingTime="0.00" waitingCount="0" stopTime="0.00" timeLoss="13.04" rerouteNo="1" devices="tripinfo_27 routing_27" vType="DEFAULT_VEHTYPE" speedFactor="0.90" vaporized=""/>
    <tripinfo id="71" depart="76.00" departLane="-gneE370_0" departPos="5.10" departSpeed="0.00" departDelay="5.00" arrival="109.00" arrivalLane="gneE481_0" arrivalPos="85.60" arrivalSpeed="10.95" duration="33.00" routeLength="280.29" waitingTime="0.00" waitingCount="0" stopTime="0.00" timeLoss="5.78" rerouteNo="1" devices="tripinfo_71 routing_71" vType="DEFAULT_VEHTYPE" speedFactor="0.85" vaporized=""/>
    <tripinfo id="18" depart="18.00" departLane="gneE437_0" departPos="5.10" departSpeed="0.00" departDelay="0.00" arrival="111.00" arrivalLane="gneE22_0" arrivalPos="85.60" arrivalSpeed="9.08" duration="93.00" routeLength="1075.13" waitingTime="0.00" waitingCount="0" stopTime="0.00" timeLoss="18.10" rerouteNo="1" devices="tripinfo_18 routing_18" vType="DEFAULT_VEHTYPE" speedFactor="1.09" vaporized=""/>
    <personinfo id="customer_0" depart="14.00" type="DEFAULT_PEDTYPE">
        <ride waitingTime="22.00" vehicle="driver_0" depart="36.00" arrival="112.00" arrivalPos="85.60" duration="76.00" routeLength="650.49" timeLoss="23.03"/>
    </personinfo>
    <tripinfo id="49" depart="49.00" departLane="gneE69_0" departPos="5.10" departSpeed="0.00" departDelay="0.00" arrival="112.00" arrivalLane="gneE47_0" arrivalPos="85.60" arrivalSpeed="17.86" duration="63.00" routeLength="669.34" waitingTime="0.00" waitingCount="0" stopTime="0.00" timeLoss="16.20" rerouteNo="1" devices="tripinfo_49 routing_49" vType="DEFAULT_VEHTYPE" speedFactor="1.06" vaporized=""/>
    <tripinfo id="driver_44" depart="99.00" departLane="-gneE407_0" departPos="50.37" departSpeed="0.00" departDelay="0.00" arrival="112.00" arrivalLane="-gneE406_0" arrivalPos="42.18" arrivalSpeed="13.98" duration="13.00" routeLength="91.81" waitingTime="0.00" waitingCount="0" stopTime="0.00" timeLoss="4.52" rerouteNo="15" devices="tripinfo_driver_44 taxi_driver_44" vType="driver" speedFactor="1.00" vaporized="traci">
        <taxi customers="0" occupiedDistance="0.00" occupiedTime="0.00"/>
    </tripinfo>
    <tripinfo id="13" depart="13.00" departLane="-gneE193_0" departPos="5.10" departSpeed="0.00" departDelay="0.00" arrival="113.00" arrivalLane="-gneE198_0" arrivalPos="85.60" arrivalSpeed="19.55" duration="100.00" routeLength="959.02" waitingTime="0.00" waitingCount="0" stopTime="0.00" timeLoss="36.82" rerouteNo="1" devices="tripinfo_13 routing_13" vType="DEFAULT_VEHTYPE" speedFactor="1.06" vaporized=""/>
    <tripinfo id="31" depart="31.00" departLane="gneE157_0" departPos="5.10" departSpeed="0.00" departDelay="0.00" arrival="113.00" arrivalLane="gneE288_0" arrivalPos="85.60" arrivalSpeed="14.03" duration="82.00" routeLength="775.13" waitingTime="0.00" waitingCount="0" stopTime="0.00" timeLoss="17.63" rerouteNo="1" devices="tripinfo_31 routing_31" vType="DEFAULT_VEHTYPE" speedFactor="1.00" vaporized=""/>
    <personinfo id="customer_20" depart="93.00" type="DEFAULT_PEDTYPE">
        <ride waitingTime="20.00" vehicle="NULL" depart="-1" arrival="113.00" arrivalPos="85.60" duration="113.00" routeLength="-1.00" timeLoss="-0.00"/>
        <stop duration="0.00" arrival="113.00" arrivalPos="84.00" actType="last stage removed"/>
    </personinfo>
    <tripinfo id="15" depart="15.00" departLane="gneE413_0" departPos="5.10" departSpeed="0.00" departDelay="0.00" arrival="115.00" arrivalLane="gneE334_0" arrivalPos="85.60" arrivalSpeed="10.00" duration="100.00" routeLength="874.71" waitingTime="0.00" waitingCount="0" stopTime="0.00" timeLoss="15.35" rerouteNo="1" devices="tripinfo_15 routing_15" vType="DEFAULT_VEHTYPE" speedFactor="0.82" vaporized=""/>
    <tripinfo id="55" depart="55.00" departLane="gneE485_0" departPos="5.10" departSpeed="0.00" departDelay="0.00" arrival="115.00" arrivalLane="-gneE369_0" arrivalPos="85.60" arrivalSpeed="8.13" duration="60.00" routeLength="569.55" waitingTime="0.00" waitingCount="0" stopTime="0.00" timeLoss="13.05" rerouteNo="1" devices="tripinfo_55 routing_55" vType="DEFAULT_VEHTYPE" speedFactor="0.91" vaporized=""/>
    <tripinfo id="48" depart="48.00" departLane="gneE95_0" departPos="5.10" departSpeed="0.00" departDelay="0.00" arrival="123.00" arrivalLane="gneE128_0" arrivalPos="85.60" arrivalSpeed="9.11" duration="75.00" routeLength="674.92" waitingTime="0.00" waitingCount="0" stopTime="0.00" timeLoss="12.57" rerouteNo="1" devices="tripinfo_48 routing_48" vType="DEFAULT_VEHTYPE" speedFactor="0.79" vaporized=""/>
    <tripinfo id="32" depart="32.00" departLane="gneE450_0" departPos="5.10" departSpeed="0.00" departDelay="0.00" arrival="124.00" arrivalLane="gneE382_0" arrivalPos="85.60" arrivalSpeed="10.15" duration="92.00" routeLength="864.39" waitingTime="0.00" waitingCount="0" stopTime="0.00" timeLoss="21.26" rerouteNo="1" devices="tripinfo_32 routing_32" vType="DEFAULT_VEHTYPE" speedFactor="0.92" vaporized=""/>
    <tripinfo id="driver_42" depart="97.00" departLane="-gneE211_0" departPos="48.76" departSpeed="0.00" departDelay="0.00" arrival="124.00" arrivalLane="-gneE37_0" arrivalPos="11.80" arrivalSpeed="13.60" duration="27.00" routeLength="257.67" waitingTime="0.00" waitingCount="0" stopTime="0.00" timeLoss="7.40" rerouteNo="33" devices="tripinfo_driver_42 taxi_driver_42" vType="driver" speedFactor="0.99" vaporized="traci">
        <taxi customers="0" occupiedDistance="0.00" occupiedTime="0.00"/>
    </tripinfo>