<?xml version="1.0" encoding="UTF-8"?>

<!-- generated on 2022-09-01 08:57:12 by Eclipse SUMO sumo Version 1.14.1
<configuration xmlns:xsi="http://www.w3.org/2001/XMLSchema-instance" xsi:noNamespaceSchemaLocation="http://sumo.dlr.de/xsd/sumoConfiguration.xsd">

    <input>
        <net-file value="net_config/sf_minimal.net.xml"/>
        <additional-files value="net_config/add.add.xml"/>
    </input>

    <output>
        <tripinfo-output value="net_config/tripinfo.xml"/>
    </output>

    <time>
        <step-length value="1"/>
    </time>

    <processing>
        <time-to-teleport value="0"/>
    </processing>

    <traci_server>
        <remote-port value="58507"/>
    </traci_server>

    <gui_only>
        <gui-settings-file value="net_config/gui-settings.cfg"/>
    </gui_only>

</configuration>
-->

<tripinfos xmlns:xsi="http://www.w3.org/2001/XMLSchema-instance" xsi:noNamespaceSchemaLocation="http://sumo.dlr.de/xsd/tripinfo_file.xsd">
    <tripinfo id="driver_0" depart="1.00" departLane="-146155465#1_0" departPos="5.10" departSpeed="0.00" departDelay="0.00" arrival="6.00" arrivalLane="-146155465#1_0" arrivalPos="21.14" arrivalSpeed="6.84" duration="5.00" routeLength="16.04" waitingTime="0.00" waitingCount="0" stopTime="0.00" timeLoss="2.58" rerouteNo="0" devices="tripinfo_driver_0" vType="DEFAULT_VEHTYPE" speedFactor="1.01" vaporized="traci"/>
    <tripinfo id="driver_9" depart="2.00" departLane="27398045#2_0" departPos="5.10" departSpeed="0.00" departDelay="0.00" arrival="7.00" arrivalLane="27398045#2_0" arrivalPos="25.54" arrivalSpeed="8.21" duration="5.00" routeLength="20.44" waitingTime="0.00" waitingCount="0" stopTime="0.00" timeLoss="2.57" rerouteNo="0" devices="tripinfo_driver_9" vType="DEFAULT_VEHTYPE" speedFactor="1.03" vaporized="traci"/>
    <tripinfo id="driver_5" depart="1.00" departLane="980893267#1_0" departPos="5.10" departSpeed="0.00" departDelay="0.00" arrival="12.00" arrivalLane="980893267#1_0" arrivalPos="65.80" arrivalSpeed="7.87" duration="11.00" routeLength="60.70" waitingTime="0.00" waitingCount="0" stopTime="0.00" timeLoss="2.34" rerouteNo="0" devices="tripinfo_driver_5" vType="DEFAULT_VEHTYPE" speedFactor="0.89" vaporized="traci"/>
    <tripinfo id="driver_12" depart="3.00" departLane="27054195#0_0" departPos="5.10" departSpeed="0.00" departDelay="0.00" arrival="12.00" arrivalLane="27054195#0_2" arrivalPos="80.44" arrivalSpeed="16.16" duration="9.00" routeLength="75.34" waitingTime="0.00" waitingCount="0" stopTime="0.00" timeLoss="4.58" rerouteNo="0" devices="tripinfo_driver_12" vType="DEFAULT_VEHTYPE" speedFactor="0.99" vaporized="traci"/>
    <tripinfo id="driver_14" depart="4.00" departLane="-146155465#2_0" departPos="5.10" departSpeed="0.00" departDelay="0.00" arrival="13.00" arrivalLane="-146155465#2_0" arrivalPos="59.70" arrivalSpeed="8.65" duration="9.00" routeLength="54.60" waitingTime="0.00" waitingCount="0" stopTime="0.00" timeLoss="2.44" rerouteNo="0" devices="tripinfo_driver_14" vType="DEFAULT_VEHTYPE" speedFactor="0.88" vaporized="traci"/>
    <tripinfo id="driver_41" depart="7.00" departLane="-87376681_0" departPos="0.20" departSpeed="0.00" departDelay="0.00" arrival="13.00" arrivalLane="-27167298#6_0" arrivalPos="3.46" arrivalSpeed="9.03" duration="6.00" routeLength="26.18" waitingTime="0.00" waitingCount="0" stopTime="0.00" timeLoss="3.19" rerouteNo="0" devices="tripinfo_driver_41" vType="DEFAULT_VEHTYPE" speedFactor="1.04" vaporized="traci"/>
    <tripinfo id="driver_44" depart="7.00" departLane="-681183503_0" departPos="5.10" departSpeed="0.00" departDelay="0.00" arrival="13.00" arrivalLane="-8921866_0" arrivalPos="4.38" arrivalSpeed="8.89" duration="6.00" routeLength="27.29" waitingTime="0.00" waitingCount="0" stopTime="0.00" timeLoss="3.64" rerouteNo="0" devices="tripinfo_driver_44" vType="DEFAULT_VEHTYPE" speedFactor="0.90" vaporized="traci"/>
    <tripinfo id="driver_28" depart="5.00" departLane="397146713#0_0" departPos="5.10" departSpeed="0.00" departDelay="0.00" arrival="15.00" arrivalLane="397146713#0_0" arrivalPos="41.33" arrivalSpeed="0.11" duration="10.00" routeLength="36.23" waitingTime="0.00" waitingCount="0" stopTime="0.00" timeLoss="7.62" rerouteNo="0" devices="tripinfo_driver_28" vType="DEFAULT_VEHTYPE" speedFactor="1.18" vaporized="traci"/>
    <tripinfo id="driver_23" depart="5.00" departLane="-765612698_0" departPos="5.10" departSpeed="0.00" departDelay="0.00" arrival="18.00" arrivalLane="399156531#4_0" arrivalPos="27.50" arrivalSpeed="10.99" duration="13.00" routeLength="78.10" waitingTime="0.00" waitingCount="0" stopTime="0.00" timeLoss="6.06" rerouteNo="0" devices="tripinfo_driver_23" vType="DEFAULT_VEHTYPE" speedFactor="0.87" vaporized="traci"/>
    <tripinfo id="driver_71" depart="11.00" departLane="-399163470#1_0" departPos="5.10" departSpeed="0.00" departDelay="0.00" arrival="18.00" arrivalLane=":65317128_12_0" arrivalPos="3.83" arrivalSpeed="5.55" duration="7.00" routeLength="34.64" waitingTime="0.00" waitingCount="0" stopTime="0.00" timeLoss="3.01" rerouteNo="0" devices="tripinfo_driver_71" vType="DEFAULT_VEHTYPE" speedFactor="0.98" vaporized="traci"/>
    <tripinfo id="driver_29" depart="5.00" departLane="1030275358_0" departPos="5.10" departSpeed="0.00" departDelay="0.00" arrival="19.00" arrivalLane="1030275359_2" arrivalPos="25.93" arrivalSpeed="9.36" duration="14.00" routeLength="107.86" waitingTime="0.00" waitingCount="0" stopTime="0.00" timeLoss="2.55" rerouteNo="0" devices="tripinfo_driver_29" vType="DEFAULT_VEHTYPE" speedFactor="1.15" vaporized="traci"/>
    <tripinfo id="driver_35" depart="6.00" departLane="417099344_0" departPos="5.10" departSpeed="0.00" departDelay="0.00" arrival="20.00" arrivalLane="417099344_0" arrivalPos="28.76" arrivalSpeed="0.00" duration="14.00" routeLength="23.66" waitingTime="7.00" waitingCount="1" stopTime="0.00" timeLoss="12.28" rerouteNo="0" devices="tripinfo_driver_35" vType="DEFAULT_VEHTYPE" speedFactor="1.18" vaporized="traci"/>
    <tripinfo id="driver_63" depart="10.00" departLane="-23924508_0" departPos="5.10" departSpeed="0.00" departDelay="0.00" arrival="20.00" arrivalLane="-23924508_0" arrivalPos="82.60" arrivalSpeed="12.12" duration="10.00" routeLength="77.50" waitingTime="0.00" waitingCount="0" stopTime="0.00" timeLoss="2.85" rerouteNo="0" devices="tripinfo_driver_63" vType="DEFAULT_VEHTYPE" speedFactor="0.91" vaporized="traci"/>
    <tripinfo id="driver_19" depart="4.00" departLane="111560680#1_0" departPos="5.10" departSpeed="0.00" departDelay="0.00" arrival="21.00" arrivalLane="51392400#0_0" arrivalPos="28.20" arrivalSpeed="15.76" duration="17.00" routeLength="230.74" waitingTime="0.00" waitingCount="0" stopTime="0.00" timeLoss="7.78" rerouteNo="0" devices="tripinfo_driver_19" vType="DEFAULT_VEHTYPE" speedFactor="1.01" vaporized="traci"/>
    <tripinfo id="driver_39" depart="6.00" departLane="-225847531_0" departPos="5.10" departSpeed="0.00" departDelay="0.00" arrival="21.00" arrivalLane=":65327158_9_0" arrivalPos="16.45" arrivalSpeed="7.43" duration="15.00" routeLength="96.63" waitingTime="0.00" waitingCount="0" stopTime="0.00" timeLoss="2.71" rerouteNo="0" devices="tripinfo_driver_39" vType="DEFAULT_VEHTYPE" speedFactor="0.96" vaporized="traci"/>
    <tripinfo id="driver_40" depart="6.00" departLane="493107463#1_0" departPos="1.26" departSpeed="0.00" departDelay="0.00" arrival="21.00" arrivalLane="493107463#1_3" arrivalPos="1.26" arrivalSpeed="0.00" duration="15.00" routeLength="0.00" waitingTime="14.00" waitingCount="1" stopTime="0.00" timeLoss="14.00" rerouteNo="0" devices="tripinfo_driver_40" vType="DEFAULT_VEHTYPE" speedFactor="1.09" vaporized="traci"/>
    <tripinfo id="driver_22" depart="5.00" departLane="-30029703#1_0" departPos="5.10" departSpeed="0.00" departDelay="0.00" arrival="23.00" arrivalLane="-30029703#1_0" arrivalPos="6.33" arrivalSpeed="0.00" duration="18.00" routeLength="1.23" waitingTime="15.00" waitingCount="1" stopTime="0.00" timeLoss="16.89" rerouteNo="0" devices="tripinfo_driver_22" vType="DEFAULT_VEHTYPE" speedFactor="0.83" vaporized="traci"/>
    <tripinfo id="driver_37" depart="6.00" departLane="-224384019#2_0" departPos="3.48" departSpeed="0.00" departDelay="0.00" arrival="23.00" arrivalLane=":1723738893_5_0" arrivalPos="4.77" arrivalSpeed="14.12" duration="17.00" routeLength="114.32" waitingTime="0.00" waitingCount="0" stopTime="0.00" timeLoss="8.58" rerouteNo="0" devices="tripinfo_driver_37" vType="DEFAULT_VEHTYPE" speedFactor="0.90" vaporized="traci"/>
    <tripinfo id="driver_51" depart="8.00" departLane="779123575#0_0" departPos="5.10" departSpeed="0.00" departDelay="0.00" arrival="23.00" arrivalLane="779123575#0_1" arrivalPos="39.64" arrivalSpeed="0.00" duration="15.00" routeLength="34.54" waitingTime="7.00" waitingCount="1" stopTime="0.00" timeLoss="12.76" rerouteNo="0" devices="tripinfo_driver_51" vType="DEFAULT_VEHTYPE" speedFactor="1.00" vaporized="traci"/>
    <tripinfo id="driver_58" depart="9.00" departLane="-674757876#1_0" departPos="5.10" departSpeed="0.00" departDelay="0.00" arrival="23.00" arrivalLane=":6319217963_11_0" arrivalPos="1.64" arrivalSpeed="3.76" duration="14.00" routeLength="125.63" waitingTime="0.00" waitingCount="0" stopTime="0.00" timeLoss="7.18" rerouteNo="0" devices="tripinfo_driver_58" vType="DEFAULT_VEHTYPE" speedFactor="1.12" vaporized="traci"/>
    <tripinfo id="driver_76" depart="11.00" departLane="27397539#1_0" departPos="2.73" departSpeed="0.00" departDelay="0.00" arrival="23.00" arrivalLane="27397539#1_1" arrivalPos="2.73" arrivalSpeed="0.00" duration="12.00" routeLength="0.00" waitingTime="11.00" waitingCount="1" stopTime="0.00" timeLoss="11.00" rerouteNo="0" devices="tripinfo_driver_76" vType="DEFAULT_VEHTYPE" speedFactor="1.03" vaporized="traci"/>
    <tripinfo id="driver_31" depart="5.00" departLane="33789581_0" departPos="5.10" departSpeed="0.00" departDelay="0.00" arrival="24.00" arrivalLane="254759933#4_0" arrivalPos="53.10" arrivalSpeed="9.84" duration="19.00" routeLength="148.91" waitingTime="0.00" waitingCount="0" stopTime="0.00" timeLoss="5.78" rerouteNo="0" devices="tripinfo_driver_31" vType="DEFAULT_VEHTYPE" speedFactor="1.17" vaporized="traci"/>
    <tripinfo id="driver_56" depart="9.00" departLane="-30029878#6_0" departPos="5.10" departSpeed="0.00" departDelay="0.00" arrival="24.00" arrivalLane="30029878#6_0" arrivalPos="10.75" arrivalSpeed="6.22" duration="15.00" routeLength="100.82" waitingTime="0.00" waitingCount="0" stopTime="0.00" timeLoss="5.90" rerouteNo="0" devices="tripinfo_driver_56" vType="DEFAULT_VEHTYPE" speedFactor="0.97" vaporized="traci"/>
    <tripinfo id="driver_85" depart="18.00" departLane="225806056#1_0" departPos="5.10" departSpeed="0.00" departDelay="0.00" arrival="25.00" arrivalLane="225806056#1_0" arrivalPos="49.46" arrivalSpeed="12.43" duration="7.00" routeLength="44.36" waitingTime="0.00" waitingCount="0" stopTime="0.00" timeLoss="4.04" rerouteNo="0" devices="tripinfo_driver_85" vType="DEFAULT_VEHTYPE" speedFactor="1.02" vaporized="traci"/>
    <tripinfo id="driver_43" depart="7.00" departLane="502795940#0_0" departPos="0.10" departSpeed="0.00" departDelay="0.00" arrival="26.00" arrivalLane="27166466#2_1" arrivalPos="31.09" arrivalSpeed="11.59" duration="19.00" routeLength="169.66" waitingTime="0.00" waitingCount="0" stopTime="0.00" timeLoss="4.96" rerouteNo="0" devices="tripinfo_driver_43" vType="DEFAULT_VEHTYPE" speedFactor="1.00" vaporized="traci"/>
    <tripinfo id="driver_46" depart="7.00" departLane="-365816000#1_0" departPos="0.20" departSpeed="0.00" departDelay="0.00" arrival="27.00" arrivalLane="365816000#0_0" arrivalPos="54.94" arrivalSpeed="0.44" duration="20.00" routeLength="115.56" waitingTime="0.00" waitingCount="0" stopTime="0.00" timeLoss="11.74" rerouteNo="0" devices="tripinfo_driver_46" vType="DEFAULT_VEHTYPE" speedFactor="0.85" vaporized="traci"/>
    <tripinfo id="driver_7" depart="1.00" departLane="-88572887#2_0" departPos="5.10" departSpeed="0.00" departDelay="0.00" arrival="28.00" arrivalLane="88572943#1_0" arrivalPos="2.85" arrivalSpeed="8.58" duration="27.00" routeLength="178.30" waitingTime="0.00" waitingCount="0" stopTime="0.00" timeLoss="11.38" rerouteNo="0" devices="tripinfo_driver_7" vType="DEFAULT_VEHTYPE" speedFactor="0.86" vaporized="traci"/>
    <tripinfo id="driver_16" depart="4.00" departLane="-27167298#4_0" departPos="5.10" departSpeed="0.00" departDelay="0.00" arrival="28.00" arrivalLane="770522069#0_0" arrivalPos="29.18" arrivalSpeed="8.17" duration="24.00" routeLength="217.07" waitingTime="0.00" waitingCount="0" stopTime="0.00" timeLoss="5.50" rerouteNo="0" devices="tripinfo_driver_16" vType="DEFAULT_VEHTYPE" speedFactor="0.94" vaporized="traci"/>
    <tripinfo id="driver_60" depart="9.00" departLane="-88597577#0_0" departPos="5.03" departSpeed="0.00" departDelay="0.00" arrival="28.00" arrivalLane="-88572965#1_0" arrivalPos="157.69" arrivalSpeed="14.22" duration="19.00" routeLength="260.52" waitingTime="0.00" waitingCount="0" stopTime="0.00" timeLoss="5.53" rerouteNo="0" devices="tripinfo_driver_60" vType="DEFAULT_VEHTYPE" speedFactor="0.99" vaporized="traci"/>
    <tripinfo id="driver_4" depart="1.00" departLane="144489136#1_0" departPos="5.10" departSpeed="0.00" departDelay="0.00" arrival="30.00" arrivalLane="144489136#1_0" arrivalPos="8.62" arrivalSpeed="0.00" duration="29.00" routeLength="3.52" waitingTime="25.00" waitingCount="1" stopTime="0.00" timeLoss="27.76" rerouteNo="0" devices="tripinfo_driver_4" vType="DEFAULT_VEHTYPE" speedFactor="1.05" vaporized="traci"/>
    <tripinfo id="driver_20" depart="4.00" departLane="277480563_0" departPos="5.10" departSpeed="0.00" departDelay="0.00" arrival="31.00" arrivalLane="277480563_1" arrivalPos="90.14" arrivalSpeed="0.00" duration="27.00" routeLength="85.04" waitingTime="11.00" waitingCount="2" stopTime="0.00" timeLoss="16.24" rerouteNo="27" devices="tripinfo_driver_20" vType="DEFAULT_VEHTYPE" speedFactor="0.97" vaporized="traci"/>
    <tripinfo id="driver_78" depart="11.00" departLane="408575054_0" departPos="5.10" departSpeed="0.00" departDelay="0.00" arrival="31.00" arrivalLane="408575054_0" arrivalPos="25.44" arrivalSpeed="0.00" duration="20.00" routeLength="20.34" waitingTime="14.00" waitingCount="1" stopTime="0.00" timeLoss="18.28" rerouteNo="0" devices="tripinfo_driver_78" vType="DEFAULT_VEHTYPE" speedFactor="1.02" vaporized="traci"/>
    <tripinfo id="driver_33" depart="6.00" departLane="402111597_0" departPos="5.10" departSpeed="0.00" departDelay="0.00" arrival="32.00" arrivalLane="-446598002#2_0" arrivalPos="35.19" arrivalSpeed="13.10" duration="26.00" routeLength="224.22" waitingTime="0.00" waitingCount="0" stopTime="0.00" timeLoss="5.81" rerouteNo="0" devices="tripinfo_driver_33" vType="DEFAULT_VEHTYPE" speedFactor="1.02" vaporized="traci"/>
    <tripinfo id="driver_66" depart="10.00" departLane="-397146712#1_0" departPos="0.20" departSpeed="0.00" departDelay="0.00" arrival="32.00" arrivalLane="8921866_1" arrivalPos="10.61" arrivalSpeed="21.66" duration="22.00" routeLength="336.33" waitingTime="0.00" waitingCount="0" stopTime="0.00" timeLoss="6.19" rerouteNo="0" devices="tripinfo_driver_66" vType="DEFAULT_VEHTYPE" speedFactor="1.02" vaporized="traci"/>
    <tripinfo id="driver_75" depart="11.00" departLane="-27166421#0_0" departPos="5.00" departSpeed="0.00" departDelay="0.00" arrival="32.00" arrivalLane="-27166421#0_0" arrivalPos="5.00" arrivalSpeed="0.00" duration="21.00" routeLength="0.00" waitingTime="20.00" waitingCount="1" stopTime="0.00" timeLoss="20.00" rerouteNo="0" devices="tripinfo_driver_75" vType="DEFAULT_VEHTYPE" speedFactor="1.09" vaporized="traci"/>
    <tripinfo id="driver_27" depart="5.00" departLane="254758114#8_0" departPos="0.76" departSpeed="0.00" departDelay="0.00" arrival="32.00" arrivalLane="254297761#0_1" arrivalPos="0.20" arrivalSpeed="5.11" duration="27.00" routeLength="246.81" waitingTime="0.00" waitingCount="0" stopTime="0.00" timeLoss="7.77" rerouteNo="0" devices="tripinfo_driver_27" vType="DEFAULT_VEHTYPE" speedFactor="0.93" vaporized=""/>
    <tripinfo id="driver_55" depart="9.00" departLane="-87297164#2_0" departPos="5.10" departSpeed="0.00" departDelay="0.00" arrival="34.00" arrivalLane="87297164#6_0" arrivalPos="22.85" arrivalSpeed="22.52" duration="25.00" routeLength="269.06" waitingTime="0.00" waitingCount="0" stopTime="0.00" timeLoss="11.53" rerouteNo="0" devices="tripinfo_driver_55" vType="DEFAULT_VEHTYPE" speedFactor="1.02" vaporized="traci"/>
    <tripinfo id="driver_89" depart="33.00" departLane="254758131#2_0" departPos="5.10" departSpeed="0.00" departDelay="0.00" arrival="34.00" arrivalLane="254758131#2_0" arrivalPos="5.10" arrivalSpeed="0.00" duration="1.00" routeLength="0.00" waitingTime="0.00" waitingCount="0" stopTime="0.00" timeLoss="0.00" rerouteNo="0" devices="tripinfo_driver_89" vType="DEFAULT_VEHTYPE" speedFactor="1.01" vaporized="traci"/>
    <tripinfo id="driver_34" depart="6.00" departLane="-254758127#1_0" departPos="5.10" departSpeed="0.00" departDelay="0.00" arrival="35.00" arrivalLane="26938418#1_0" arrivalPos="51.08" arrivalSpeed="18.70" duration="29.00" routeLength="272.03" waitingTime="0.00" waitingCount="0" stopTime="0.00" timeLoss="9.35" rerouteNo="0" devices="tripinfo_driver_34" vType="DEFAULT_VEHTYPE" speedFactor="0.97" vaporized="traci"/>
    <tripinfo id="driver_30" depart="5.00" departLane="513704711_0" departPos="5.10" departSpeed="0.00" departDelay="0.00" arrival="36.00" arrivalLane="513704711_2" arrivalPos="29.00" arrivalSpeed="0.00" duration="31.00" routeLength="23.90" waitingTime="23.00" waitingCount="1" stopTime="0.00" timeLoss="27.34" rerouteNo="0" devices="tripinfo_driver_30" vType="DEFAULT_VEHTYPE" speedFactor="1.01" vaporized="traci"/>
    <tripinfo id="driver_42" depart="7.00" departLane="-769489483#0_0" departPos="5.10" departSpeed="0.00" departDelay="0.00" arrival="36.00" arrivalLane="769490513_0" arrivalPos="61.73" arrivalSpeed="14.11" duration="29.00" routeLength="251.58" waitingTime="0.00" waitingCount="0" stopTime="0.00" timeLoss="9.72" rerouteNo="0" devices="tripinfo_driver_42" vType="DEFAULT_VEHTYPE" speedFactor="1.09" vaporized="traci"/>
    <tripinfo id="driver_24" depart="5.00" departLane="-425516650#0_0" departPos="5.10" departSpeed="0.00" departDelay="0.00" arrival="37.00" arrivalLane="-26938155#0_0" arrivalPos="3.51" arrivalSpeed="0.00" duration="32.00" routeLength="164.80" waitingTime="13.00" waitingCount="1" stopTime="0.00" timeLoss="22.91" rerouteNo="0" devices="tripinfo_driver_24" vType="DEFAULT_VEHTYPE" speedFactor="0.92" vaporized="traci"/>
    <tripinfo id="driver_21" depart="4.00" departLane="-88572941#0_0" departPos="5.10" departSpeed="0.00" departDelay="0.00" arrival="38.00" arrivalLane="88572941#0_0" arrivalPos="178.85" arrivalSpeed="24.35" duration="34.00" routeLength="430.97" waitingTime="0.00" waitingCount="0" stopTime="0.00" timeLoss="14.41" rerouteNo="0" devices="tripinfo_driver_21" vType="DEFAULT_VEHTYPE" speedFactor="0.89" vaporized="traci"/>
    <tripinfo id="driver_45" depart="7.00" departLane="-686246694_0" departPos="5.10" departSpeed="0.00" departDelay="0.00" arrival="38.00" arrivalLane="-297445459_0" arrivalPos="8.37" arrivalSpeed="7.76" duration="31.00" routeLength="214.34" waitingTime="0.00" waitingCount="0" stopTime="0.00" timeLoss="3.62" rerouteNo="1" devices="tripinfo_driver_45" vType="DEFAULT_VEHTYPE" speedFactor="0.88" vaporized="traci"/>
    <tripinfo id="driver_18" depart="4.00" departLane="224316522_0" departPos="5.10" departSpeed="0.00" departDelay="0.00" arrival="39.00" arrivalLane="766116625#1_0" arrivalPos="5.45" arrivalSpeed="0.00" duration="35.00" routeLength="150.72" waitingTime="18.00" waitingCount="1" stopTime="0.00" timeLoss="27.99" rerouteNo="0" devices="tripinfo_driver_18" vType="DEFAULT_VEHTYPE" speedFactor="1.02" vaporized="traci"/>
    <tripinfo id="driver_69" depart="10.00" departLane="-619979111#1_0" departPos="4.86" departSpeed="0.00" departDelay="0.00" arrival="39.00" arrivalLane="-225806043#0_0" arrivalPos="6.23" arrivalSpeed="14.51" duration="29.00" routeLength="260.03" waitingTime="0.00" waitingCount="0" stopTime="0.00" timeLoss="14.97" rerouteNo="0" devices="tripinfo_driver_69" vType="DEFAULT_VEHTYPE" speedFactor="0.94" vaporized=""/>
    <tripinfo id="driver_36" depart="6.00" departLane="408572569_0" departPos="5.10" departSpeed="0.00" departDelay="0.00" arrival="40.00" arrivalLane="144346316#1_0" arrivalPos="83.53" arrivalSpeed="19.00" duration="34.00" routeLength="184.32" waitingTime="11.00" waitingCount="1" stopTime="0.00" timeLoss="24.52" rerouteNo="0" devices="tripinfo_driver_36" vType="DEFAULT_VEHTYPE" speedFactor="1.10" vaporized="traci"/>
    <tripinfo id="driver_17" depart="4.00" departLane="-254466686#7_0" departPos="0.20" departSpeed="0.00" departDelay="0.00" arrival="40.00" arrivalLane=":7231084698_0_0" arrivalPos="0.15" arrivalSpeed="0.00" duration="36.00" routeLength="180.22" waitingTime="10.00" waitingCount="2" stopTime="3.00" timeLoss="24.34" rerouteNo="36" devices="tripinfo_driver_17" vType="DEFAULT_VEHTYPE" speedFactor="1.16" vaporized="traci"/>
    <tripinfo id="driver_8" depart="2.00" departLane="-48211062#4_0" departPos="5.10" departSpeed="0.00" departDelay="0.00" arrival="41.00" arrivalLane="446598001#4_0" arrivalPos="1.69" arrivalSpeed="6.26" duration="39.00" routeLength="549.95" waitingTime="0.00" waitingCount="0" stopTime="0.00" timeLoss="10.42" rerouteNo="0" devices="tripinfo_driver_8" vType="DEFAULT_VEHTYPE" speedFactor="1.09" vaporized="traci"/>
    <tripinfo id="driver_52" depart="8.00" departLane="-397144790_0" departPos="5.10" departSpeed="0.00" departDelay="0.00" arrival="41.00" arrivalLane=":65326744_3_0" arrivalPos="1.64" arrivalSpeed="5.74" duration="33.00" routeLength="252.47" waitingTime="0.00" waitingCount="0" stopTime="0.00" timeLoss="7.79" rerouteNo="0" devices="tripinfo_driver_52" vType="DEFAULT_VEHTYPE" speedFactor="1.00" vaporized="traci"/>
    <tripinfo id="driver_54" depart="9.00" departLane="-399163469#0_0" departPos="0.10" departSpeed="0.00" departDelay="0.00" arrival="43.00" arrivalLane="91185870#1_0" arrivalPos="4.25" arrivalSpeed="0.00" duration="34.00" routeLength="243.71" waitingTime="6.00" waitingCount="1" stopTime="0.00" timeLoss="17.11" rerouteNo="0" devices="tripinfo_driver_54" vType="DEFAULT_VEHTYPE" speedFactor="1.14" vaporized="traci"/>
    <tripinfo id="driver_67" depart="10.00" departLane="721174655_0" departPos="5.10" departSpeed="0.00" departDelay="0.00" arrival="43.00" arrivalLane="721174655_1" arrivalPos="41.95" arrivalSpeed="0.00" duration="33.00" routeLength="36.85" waitingTime="23.00" waitingCount="1" stopTime="0.00" timeLoss="30.38" rerouteNo="0" devices="tripinfo_driver_67" vType="DEFAULT_VEHTYPE" speedFactor="1.02" vaporized="traci"/>
    <tripinfo id="driver_6" depart="1.00" departLane="981636498#2_0" departPos="2.81" departSpeed="0.00" departDelay="0.00" arrival="44.00" arrivalLane="89782522#1_0" arrivalPos="8.75" arrivalSpeed="0.00" duration="43.00" routeLength="19.30" waitingTime="36.00" waitingCount="2" stopTime="0.00" timeLoss="40.89" rerouteNo="0" devices="tripinfo_driver_6" vType="DEFAULT_VEHTYPE" speedFactor="0.94" vaporized="traci"/>
    <tripinfo id="driver_70" depart="10.00" departLane="8917791_0" departPos="5.10" departSpeed="0.00" departDelay="0.00" arrival="45.00" arrivalLane="766805263_0" arrivalPos="30.40" arrivalSpeed="0.00" duration="35.00" routeLength="172.43" waitingTime="18.00" waitingCount="1" stopTime="0.00" timeLoss="26.65" rerouteNo="0" devices="tripinfo_driver_70" vType="DEFAULT_VEHTYPE" speedFactor="1.06" vaporized="traci"/>
    <tripinfo id="driver_47" depart="7.00" departLane="254448248_0" departPos="5.10" departSpeed="0.00" departDelay="0.00" arrival="46.00" arrivalLane=":65354421_7_0" arrivalPos="0.45" arrivalSpeed="1.45" duration="39.00" routeLength="83.94" waitingTime="22.00" waitingCount="1" stopTime="0.00" timeLoss="26.98" rerouteNo="0" devices="tripinfo_driver_47" vType="DEFAULT_VEHTYPE" speedFactor="0.85" vaporized="traci"/>
    <tripinfo id="driver_48" depart="7.00" departLane="-446233234_0" departPos="5.10" departSpeed="0.00" departDelay="0.00" arrival="46.00" arrivalLane="-446233234_0" arrivalPos="85.94" arrivalSpeed="0.00" duration="39.00" routeLength="80.84" waitingTime="26.00" waitingCount="1" stopTime="0.00" timeLoss="30.26" rerouteNo="0" devices="tripinfo_driver_48" vType="DEFAULT_VEHTYPE" speedFactor="1.17" vaporized="traci"/>
    <tripinfo id="driver_49" depart="7.00" departLane="921631726_0" departPos="5.10" departSpeed="0.00" departDelay="0.00" arrival="46.00" arrivalLane="473325695_0" arrivalPos="30.80" arrivalSpeed="0.00" duration="39.00" routeLength="124.75" waitingTime="19.00" waitingCount="1" stopTime="0.00" timeLoss="24.28" rerouteNo="0" devices="tripinfo_driver_49" vType="DEFAULT_VEHTYPE" speedFactor="1.02" vaporized="traci"/>
    <tripinfo id="driver_82" depart="17.00" departLane="-144346316#1_0" departPos="5.10" departSpeed="0.00" departDelay="0.00" arrival="46.00" arrivalLane="-144346316#0_0" arrivalPos="1.87" arrivalSpeed="0.00" duration="29.00" routeLength="124.27" waitingTime="12.00" waitingCount="1" stopTime="0.00" timeLoss="22.64" rerouteNo="0" devices="tripinfo_driver_82" vType="DEFAULT_VEHTYPE" speedFactor="1.04" vaporized="traci"/>
    <tripinfo id="driver_59" depart="9.00" departLane="286003244#0_0" departPos="0.20" departSpeed="0.00" departDelay="0.00" arrival="47.00" arrivalLane=":65295299_18_0" arrivalPos="1.11" arrivalSpeed="4.35" duration="38.00" routeLength="346.20" waitingTime="0.00" waitingCount="0" stopTime="0.00" timeLoss="11.28" rerouteNo="0" devices="tripinfo_driver_59" vType="DEFAULT_VEHTYPE" speedFactor="1.02" vaporized="traci"/>
    <tripinfo id="driver_61" depart="9.00" departLane="-425624293_0" departPos="5.10" departSpeed="0.00" departDelay="0.00" arrival="48.00" arrivalLane=":65317939_2_1" arrivalPos="8.22" arrivalSpeed="5.20" duration="39.00" routeLength="326.20" waitingTime="3.00" waitingCount="1" stopTime="0.00" timeLoss="21.83" rerouteNo="2" devices="tripinfo_driver_61" vType="DEFAULT_VEHTYPE" speedFactor="0.94" vaporized="traci"/>
    <tripinfo id="driver_77" depart="11.00" departLane="397136324#0_0" departPos="5.10" departSpeed="0.00" departDelay="0.00" arrival="49.00" arrivalLane="144346316#1_0" arrivalPos="126.72" arrivalSpeed="0.17" duration="38.00" routeLength="173.93" waitingTime="12.00" waitingCount="1" stopTime="0.00" timeLoss="28.61" rerouteNo="0" devices="tripinfo_driver_77" vType="DEFAULT_VEHTYPE" speedFactor="1.00" vaporized="traci"/>
    <tripinfo id="driver_79" depart="11.00" departLane="772536173#0_0" departPos="5.10" departSpeed="0.00" departDelay="0.00" arrival="52.00" arrivalLane="766116625#1_0" arrivalPos="5.44" arrivalSpeed="0.01" duration="41.00" routeLength="189.79" waitingTime="14.00" waitingCount="2" stopTime="0.00" timeLoss="31.09" rerouteNo="0" devices="tripinfo_driver_79" vType="DEFAULT_VEHTYPE" speedFactor="0.97" vaporized="traci"/>
    <tripinfo id="driver_13" depart="3.00" departLane="91181758#1_0" departPos="5.10" departSpeed="0.00" departDelay="0.00" arrival="53.00" arrivalLane="734004334#0_1" arrivalPos="8.95" arrivalSpeed="14.25" duration="50.00" routeLength="144.86" waitingTime="30.00" waitingCount="1" stopTime="0.00" timeLoss="39.09" rerouteNo="0" devices="tripinfo_driver_13" vType="DEFAULT_VEHTYPE" speedFactor="0.93" vaporized="traci"/>
    <tripinfo id="driver_65" depart="10.00" departLane="425516638#0_0" departPos="0.20" departSpeed="0.00" departDelay="0.00" arrival="54.00" arrivalLane="-397146712#1_0" arrivalPos="0.07" arrivalSpeed="6.76" duration="44.00" routeLength="335.58" waitingTime="3.00" waitingCount="1" stopTime="0.00" timeLoss="20.27" rerouteNo="1" devices="tripinfo_driver_65" vType="DEFAULT_VEHTYPE" speedFactor="1.04" vaporized="traci"/>
    <tripinfo id="driver_2" depart="1.00" departLane="-254396709#1_0" departPos="5.10" departSpeed="0.00" departDelay="0.00" arrival="54.00" arrivalLane="-254466686#7_0" arrivalPos="0.20" arrivalSpeed="2.27" duration="53.00" routeLength="142.91" waitingTime="28.00" waitingCount="2" stopTime="2.00" timeLoss="44.66" rerouteNo="1" devices="tripinfo_driver_2 person_driver_2" vType="DEFAULT_VEHTYPE" speedFactor="1.03" vaporized=""/>
    <personinfo id="customer_1" depart="1.00" type="DEFAULT_PEDTYPE">
        <stop duration="49.00" arrival="50.00" arrivalPos="0.00" actType="waiting"/>
        <ride waitingTime="4.00" vehicle="driver_2" depart="54.00" arrival="54.00" arrivalPos="0.20" duration="0.00" routeLength="0.05" timeLoss="0.90"/>
        <stop duration="1.00" arrival="55.00" arrivalPos="41.00" actType="waiting"/>
    </personinfo>
    <tripinfo id="driver_53" depart="9.00" departLane="-425516678#10_0" departPos="5.10" departSpeed="0.00" departDelay="0.00" arrival="55.00" arrivalLane="-8916767_0" arrivalPos="93.57" arrivalSpeed="11.30" duration="46.00" routeLength="385.61" waitingTime="0.00" waitingCount="0" stopTime="0.00" timeLoss="10.35" rerouteNo="0" devices="tripinfo_driver_53" vType="DEFAULT_VEHTYPE" speedFactor="0.90" vaporized="traci"/>
    <tripinfo id="driver_64" depart="10.00" departLane="-87376681_0" departPos="0.20" departSpeed="0.00" departDelay="0.00" arrival="55.00" arrivalLane="-27050837_0" arrivalPos="84.56" arrivalSpeed="0.12" duration="45.00" routeLength="243.11" waitingTime="14.00" waitingCount="1" stopTime="0.00" timeLoss="27.50" rerouteNo="0" devices="tripinfo_driver_64" vType="DEFAULT_VEHTYPE" speedFactor="0.91" vaporized="traci"/>
    <tripinfo id="driver_74" depart="11.00" departLane="-91182067#1_0" departPos="5.10" departSpeed="0.00" departDelay="0.00" arrival="55.00" arrivalLane="-91182067#0_0" arrivalPos="0.80" arrivalSpeed="0.00" duration="44.00" routeLength="64.92" waitingTime="34.00" waitingCount="1" stopTime="0.00" timeLoss="37.24" rerouteNo="0" devices="tripinfo_driver_74" vType="DEFAULT_VEHTYPE" speedFactor="1.01" vaporized="traci"/>