<?xml version="1.0" encoding="UTF-8"?>

<!-- generated on 2022-09-01 10:51:40 by Eclipse SUMO sumo Version 1.14.1
<configuration xmlns:xsi="http://www.w3.org/2001/XMLSchema-instance" xsi:noNamespaceSchemaLocation="http://sumo.dlr.de/xsd/sumoConfiguration.xsd">

    <input>
        <net-file value="net_config/sf_minimal.net.xml"/>
        <additional-files value="net_config/add.add.xml"/>
    </input>

    <output>
        <tripinfo-output value="net_config/tripinfo.xml"/>
    </output>

    <time>
        <step-length value="1"/>
    </time>

    <processing>
        <time-to-teleport value="0"/>
    </processing>

    <traci_server>
        <remote-port value="57102"/>
    </traci_server>

    <gui_only>
        <gui-settings-file value="net_config/gui-settings.cfg"/>
    </gui_only>

</configuration>
-->

<tripinfos xmlns:xsi="http://www.w3.org/2001/XMLSchema-instance" xsi:noNamespaceSchemaLocation="http://sumo.dlr.de/xsd/tripinfo_file.xsd">
    <tripinfo id="driver_10" depart="2.00" departLane="-406581247#1_0" departPos="5.10" departSpeed="0.00" departDelay="0.00" arrival="19.00" arrivalLane="-781122181#2_0" arrivalPos="0.20" arrivalSpeed="13.32" duration="17.00" routeLength="161.93" waitingTime="0.00" waitingCount="0" stopTime="0.00" timeLoss="3.18" rerouteNo="0" devices="tripinfo_driver_10" vType="DEFAULT_VEHTYPE" speedFactor="1.09" vaporized=""/>
    <tripinfo id="driver_54" depart="9.00" departLane="225806055_0" departPos="5.10" departSpeed="0.00" departDelay="0.00" arrival="19.00" arrivalLane="934194966#1_0" arrivalPos="3.33" arrivalSpeed="19.29" duration="10.00" routeLength="92.39" waitingTime="0.00" waitingCount="0" stopTime="0.00" timeLoss="5.22" rerouteNo="0" devices="tripinfo_driver_54" vType="DEFAULT_VEHTYPE" speedFactor="1.00" vaporized=""/>
    <tripinfo id="driver_75" depart="22.00" departLane="-24588081#1_0" departPos="1.45" departSpeed="0.00" departDelay="2.00" arrival="23.00" arrivalLane="-24588081#1_0" arrivalPos="1.45" arrivalSpeed="0.00" duration="1.00" routeLength="0.00" waitingTime="0.00" waitingCount="0" stopTime="0.00" timeLoss="0.00" rerouteNo="0" devices="tripinfo_driver_75" vType="DEFAULT_VEHTYPE" speedFactor="1.03" vaporized="traci"/>
    <tripinfo id="driver_17" depart="4.00" departLane="87297164#1_0" departPos="5.10" departSpeed="0.00" departDelay="0.00" arrival="33.00" arrivalLane="-35977367#2_0" arrivalPos="1.15" arrivalSpeed="6.82" duration="29.00" routeLength="414.44" waitingTime="0.00" waitingCount="0" stopTime="0.00" timeLoss="7.04" rerouteNo="0" devices="tripinfo_driver_17" vType="DEFAULT_VEHTYPE" speedFactor="0.94" vaporized=""/>
    <tripinfo id="driver_53" depart="9.00" departLane="-111586254_0" departPos="5.10" departSpeed="0.00" departDelay="0.00" arrival="35.00" arrivalLane="513701212#0_1" arrivalPos="0.20" arrivalSpeed="25.94" duration="26.00" routeLength="318.82" waitingTime="0.00" waitingCount="0" stopTime="0.00" timeLoss="11.04" rerouteNo="0" devices="tripinfo_driver_53" vType="DEFAULT_VEHTYPE" speedFactor="1.00" vaporized=""/>
    <tripinfo id="driver_13" depart="3.00" departLane="30029172#1_0" departPos="5.10" departSpeed="0.00" departDelay="0.00" arrival="36.00" arrivalLane="30029172#1_0" arrivalPos="128.70" arrivalSpeed="0.00" duration="33.00" routeLength="123.60" waitingTime="18.00" waitingCount="1" stopTime="0.00" timeLoss="24.08" rerouteNo="0" devices="tripinfo_driver_13" vType="DEFAULT_VEHTYPE" speedFactor="1.12" vaporized="traci"/>
    <tripinfo id="driver_0" depart="1.00" departLane="85644931#1_0" departPos="5.10" departSpeed="0.00" departDelay="0.00" arrival="47.00" arrivalLane=":258758534_4_0" arrivalPos="4.29" arrivalSpeed="3.81" duration="46.00" routeLength="87.32" waitingTime="32.00" waitingCount="1" stopTime="0.00" timeLoss="37.63" rerouteNo="0" devices="tripinfo_driver_0" vType="DEFAULT_VEHTYPE" speedFactor="1.06" vaporized="traci"/>
    <tripinfo id="driver_45" depart="8.00" departLane="286003244#4_0" departPos="5.10" departSpeed="0.00" departDelay="0.00" arrival="50.00" arrivalLane="397146713#1_1" arrivalPos="0.10" arrivalSpeed="19.45" duration="42.00" routeLength="443.98" waitingTime="0.00" waitingCount="0" stopTime="0.00" timeLoss="13.82" rerouteNo="0" devices="tripinfo_driver_45" vType="DEFAULT_VEHTYPE" speedFactor="1.00" vaporized=""/>
    <tripinfo id="driver_62" depart="10.00" departLane="-28841115#5_0" departPos="4.38" departSpeed="0.00" departDelay="0.00" arrival="51.00" arrivalLane="286003244#0_1" arrivalPos="0.20" arrivalSpeed="8.44" duration="41.00" routeLength="362.30" waitingTime="0.00" waitingCount="0" stopTime="0.00" timeLoss="10.88" rerouteNo="0" devices="tripinfo_driver_62" vType="DEFAULT_VEHTYPE" speedFactor="0.99" vaporized=""/>
    <tripinfo id="driver_61" depart="10.00" departLane="461084153#0_0" departPos="5.10" departSpeed="0.00" departDelay="0.00" arrival="56.00" arrivalLane="26988009#2_1" arrivalPos="4.45" arrivalSpeed="21.54" duration="46.00" routeLength="455.97" waitingTime="4.00" waitingCount="1" stopTime="0.00" timeLoss="20.77" rerouteNo="1" devices="tripinfo_driver_61" vType="DEFAULT_VEHTYPE" speedFactor="1.02" vaporized="traci"/>
    <tripinfo id="driver_21" depart="4.00" departLane="254758114#0_0" departPos="0.20" departSpeed="0.00" departDelay="0.00" arrival="57.00" arrivalLane="1036844055_1" arrivalPos="4.33" arrivalSpeed="13.34" duration="53.00" routeLength="253.56" waitingTime="24.00" waitingCount="1" stopTime="0.00" timeLoss="36.38" rerouteNo="1" devices="tripinfo_driver_21" vType="DEFAULT_VEHTYPE" speedFactor="1.01" vaporized="traci"/>
    <tripinfo id="driver_2" depart="1.00" departLane="502795940#0_0" departPos="0.10" departSpeed="0.00" departDelay="0.00" arrival="58.00" arrivalLane="254297761#0_0" arrivalPos="0.20" arrivalSpeed="8.03" duration="57.00" routeLength="349.65" waitingTime="19.00" waitingCount="1" stopTime="0.00" timeLoss="30.17" rerouteNo="0" devices="tripinfo_driver_2" vType="DEFAULT_VEHTYPE" speedFactor="1.01" vaporized=""/>
    <tripinfo id="driver_60" depart="10.00" departLane="425516615_0" departPos="5.10" departSpeed="0.00" departDelay="0.00" arrival="59.00" arrivalLane="-417099350_0" arrivalPos="13.17" arrivalSpeed="16.60" duration="49.00" routeLength="199.44" waitingTime="25.00" waitingCount="1" stopTime="0.00" timeLoss="39.00" rerouteNo="1" devices="tripinfo_driver_60" vType="DEFAULT_VEHTYPE" speedFactor="1.12" vaporized="traci"/>
    <tripinfo id="driver_49" depart="9.00" departLane="-146155465#2_0" departPos="5.10" departSpeed="0.00" departDelay="0.00" arrival="64.00" arrivalLane="1020512097#0_0" arrivalPos="0.42" arrivalSpeed="9.48" duration="55.00" routeLength="477.16" waitingTime="0.00" waitingCount="0" stopTime="0.00" timeLoss="9.17" rerouteNo="1" devices="tripinfo_driver_49" vType="DEFAULT_VEHTYPE" speedFactor="0.85" vaporized="traci"/>
    <tripinfo id="driver_55" depart="9.00" departLane="254758125#1_0" departPos="5.10" departSpeed="0.00" departDelay="0.00" arrival="64.00" arrivalLane="277480563_2" arrivalPos="74.90" arrivalSpeed="6.75" duration="55.00" routeLength="174.20" waitingTime="25.00" waitingCount="1" stopTime="0.00" timeLoss="32.32" rerouteNo="0" devices="tripinfo_driver_55" vType="DEFAULT_VEHTYPE" speedFactor="0.90" vaporized="traci"/>
    <tripinfo id="driver_51" depart="9.00" departLane="254971069#1_0" departPos="5.10" departSpeed="0.00" departDelay="0.00" arrival="67.00" arrivalLane="425516649#1_0" arrivalPos="4.29" arrivalSpeed="2.43" duration="58.00" routeLength="512.62" waitingTime="4.00" waitingCount="2" stopTime="3.00" timeLoss="33.03" rerouteNo="1" devices="tripinfo_driver_51" vType="DEFAULT_VEHTYPE" speedFactor="1.02" vaporized=""/>
    <tripinfo id="driver_6" depart="2.00" departLane="-24335486#1_0" departPos="1.15" departSpeed="0.00" departDelay="0.00" arrival="70.00" arrivalLane="513676833#0_0" arrivalPos="0.20" arrivalSpeed="8.06" duration="68.00" routeLength="298.92" waitingTime="33.00" waitingCount="1" stopTime="0.00" timeLoss="41.86" rerouteNo="0" devices="tripinfo_driver_6" vType="DEFAULT_VEHTYPE" speedFactor="1.05" vaporized=""/>
    <tripinfo id="driver_43" depart="8.00" departLane="30030485#0_0" departPos="5.10" departSpeed="0.00" departDelay="0.00" arrival="70.00" arrivalLane="587388483#1_0" arrivalPos="0.20" arrivalSpeed="10.54" duration="62.00" routeLength="635.54" waitingTime="0.00" waitingCount="0" stopTime="0.00" timeLoss="12.86" rerouteNo="0" devices="tripinfo_driver_43" vType="DEFAULT_VEHTYPE" speedFactor="1.04" vaporized=""/>
    <tripinfo id="driver_12" depart="3.00" departLane="-148846998#1_0" departPos="0.20" departSpeed="0.00" departDelay="0.00" arrival="71.00" arrivalLane="-30029703#5_0" arrivalPos="1.61" arrivalSpeed="2.53" duration="68.00" routeLength="539.43" waitingTime="0.00" waitingCount="0" stopTime="3.00" timeLoss="18.22" rerouteNo="1" devices="tripinfo_driver_12" vType="DEFAULT_VEHTYPE" speedFactor="1.05" vaporized=""/>
    <tripinfo id="driver_82" depart="52.00" departLane="27166466#2_0" departPos="5.10" departSpeed="0.00" departDelay="0.00" arrival="71.00" arrivalLane="254297761#0_0" arrivalPos="0.20" arrivalSpeed="8.71" duration="19.00" routeLength="205.98" waitingTime="0.00" waitingCount="0" stopTime="0.00" timeLoss="3.93" rerouteNo="0" devices="tripinfo_driver_82" vType="DEFAULT_VEHTYPE" speedFactor="1.04" vaporized=""/>
    <tripinfo id="driver_76" depart="21.00" departLane="-742976231_0" departPos="5.10" departSpeed="0.00" departDelay="0.00" arrival="72.00" arrivalLane=":65372925_4_0" arrivalPos="6.88" arrivalSpeed="8.00" duration="51.00" routeLength="365.36" waitingTime="0.00" waitingCount="0" stopTime="0.00" timeLoss="7.45" rerouteNo="0" devices="tripinfo_driver_76" vType="DEFAULT_VEHTYPE" speedFactor="0.98" vaporized="traci"/>
    <tripinfo id="driver_5" depart="1.00" departLane="-781122181#0_0" departPos="1.46" departSpeed="0.00" departDelay="0.00" arrival="77.00" arrivalLane="1035093272_1" arrivalPos="57.48" arrivalSpeed="0.00" duration="76.00" routeLength="140.58" waitingTime="49.00" waitingCount="2" stopTime="0.00" timeLoss="61.52" rerouteNo="0" devices="tripinfo_driver_5" vType="DEFAULT_VEHTYPE" speedFactor="0.83" vaporized="traci"/>
    <tripinfo id="driver_20" depart="4.00" departLane="224316514_0" departPos="5.10" departSpeed="0.00" departDelay="0.00" arrival="81.00" arrivalLane=":7155175568_0_0" arrivalPos="6.50" arrivalSpeed="0.17" duration="77.00" routeLength="347.39" waitingTime="31.00" waitingCount="3" stopTime="0.00" timeLoss="58.43" rerouteNo="0" devices="tripinfo_driver_20" vType="DEFAULT_VEHTYPE" speedFactor="1.02" vaporized="traci"/>
    <tripinfo id="driver_1" depart="1.00" departLane="-91181759#1_0" departPos="0.20" departSpeed="0.00" departDelay="0.00" arrival="87.00" arrivalLane="417099347#0_0" arrivalPos="1.50" arrivalSpeed="0.04" duration="86.00" routeLength="935.51" waitingTime="12.00" waitingCount="2" stopTime="0.00" timeLoss="34.23" rerouteNo="1" devices="tripinfo_driver_1" vType="DEFAULT_VEHTYPE" speedFactor="0.94" vaporized="traci"/>
    <tripinfo id="driver_56" depart="9.00" departLane="225847513_0" departPos="5.10" departSpeed="0.00" departDelay="0.00" arrival="87.00" arrivalLane="254759933#1_0" arrivalPos="76.00" arrivalSpeed="0.11" duration="78.00" routeLength="674.63" waitingTime="0.00" waitingCount="0" stopTime="0.00" timeLoss="10.42" rerouteNo="0" devices="tripinfo_driver_56" vType="DEFAULT_VEHTYPE" speedFactor="1.14" vaporized="traci"/>
    <tripinfo id="driver_19" depart="4.00" departLane="-945294697_0" departPos="5.10" departSpeed="0.00" departDelay="0.00" arrival="93.00" arrivalLane=":1723738893_1_0" arrivalPos="12.64" arrivalSpeed="6.94" duration="89.00" routeLength="304.25" waitingTime="48.00" waitingCount="3" stopTime="0.00" timeLoss="75.92" rerouteNo="0" devices="tripinfo_driver_19" vType="DEFAULT_VEHTYPE" speedFactor="1.16" vaporized="traci"/>
    <tripinfo id="driver_92" depart="71.00" departLane="-91181760#2_0" departPos="5.10" departSpeed="0.00" departDelay="0.00" arrival="93.00" arrivalLane=":65295324_1_0" arrivalPos="12.65" arrivalSpeed="7.24" duration="22.00" routeLength="118.60" waitingTime="0.00" waitingCount="0" stopTime="0.00" timeLoss="15.31" rerouteNo="0" devices="tripinfo_driver_92" vType="DEFAULT_VEHTYPE" speedFactor="1.10" vaporized="traci"/>
    <tripinfo id="driver_34" depart="6.00" departLane="721174654_0" departPos="5.10" departSpeed="0.00" departDelay="0.00" arrival="93.00" arrivalLane="-781122181#2_0" arrivalPos="0.20" arrivalSpeed="7.81" duration="87.00" routeLength="530.34" waitingTime="26.00" waitingCount="2" stopTime="0.00" timeLoss="56.97" rerouteNo="0" devices="tripinfo_driver_34" vType="DEFAULT_VEHTYPE" speedFactor="0.99" vaporized=""/>
    <tripinfo id="driver_69" depart="11.00" departLane="224316522_0" departPos="5.10" departSpeed="0.00" departDelay="0.00" arrival="93.00" arrivalLane="-228196396#1_0" arrivalPos="0.20" arrivalSpeed="5.23" duration="82.00" routeLength="334.54" waitingTime="46.00" waitingCount="2" stopTime="0.00" timeLoss="65.78" rerouteNo="0" devices="tripinfo_driver_69" vType="DEFAULT_VEHTYPE" speedFactor="1.02" vaporized=""/>
    <tripinfo id="driver_37" depart="7.00" departLane="-133376120#2_0" departPos="5.10" departSpeed="0.00" departDelay="0.00" arrival="94.00" arrivalLane="-254758127#1_0" arrivalPos="41.00" arrivalSpeed="12.10" duration="87.00" routeLength="802.56" waitingTime="0.00" waitingCount="0" stopTime="3.00" timeLoss="27.27" rerouteNo="1" devices="tripinfo_driver_37" vType="DEFAULT_VEHTYPE" speedFactor="1.10" vaporized=""/>
    <tripinfo id="driver_59" depart="9.00" departLane="8917756_0" departPos="5.10" departSpeed="0.00" departDelay="0.00" arrival="96.00" arrivalLane="527829938#1_2" arrivalPos="28.39" arrivalSpeed="11.48" duration="87.00" routeLength="223.55" waitingTime="53.00" waitingCount="2" stopTime="0.00" timeLoss="67.64" rerouteNo="0" devices="tripinfo_driver_59" vType="DEFAULT_VEHTYPE" speedFactor="1.08" vaporized="traci"/>
    <tripinfo id="driver_81" depart="51.00" departLane="417947135_0" departPos="5.10" departSpeed="0.00" departDelay="0.00" arrival="96.00" arrivalLane="-781122181#2_0" arrivalPos="0.20" arrivalSpeed="9.04" duration="45.00" routeLength="403.06" waitingTime="0.00" waitingCount="0" stopTime="0.00" timeLoss="21.00" rerouteNo="0" devices="tripinfo_driver_81" vType="DEFAULT_VEHTYPE" speedFactor="1.00" vaporized=""/>
    <tripinfo id="driver_66" depart="11.00" departLane="-425516650#1_0" departPos="5.10" departSpeed="0.00" departDelay="0.00" arrival="101.00" arrivalLane="397094227#0_0" arrivalPos="0.29" arrivalSpeed="19.36" duration="90.00" routeLength="532.60" waitingTime="39.00" waitingCount="2" stopTime="0.00" timeLoss="61.94" rerouteNo="0" devices="tripinfo_driver_66" vType="DEFAULT_VEHTYPE" speedFactor="0.91" vaporized=""/>
    <tripinfo id="driver_99" depart="95.00" departLane="-770522136#1_0" departPos="0.56" departSpeed="0.00" departDelay="0.00" arrival="107.00" arrivalLane=":65337421_9_0" arrivalPos="6.15" arrivalSpeed="7.58" duration="12.00" routeLength="93.63" waitingTime="0.00" waitingCount="0" stopTime="0.00" timeLoss="5.92" rerouteNo="0" devices="tripinfo_driver_99" vType="DEFAULT_VEHTYPE" speedFactor="1.06" vaporized="traci"/>
    <tripinfo id="driver_9" depart="2.00" departLane="968937451#2_0" departPos="5.10" departSpeed="0.00" departDelay="0.00" arrival="111.00" arrivalLane=":552853367_0_0" arrivalPos="1.48" arrivalSpeed="0.00" duration="109.00" routeLength="659.85" waitingTime="12.00" waitingCount="3" stopTime="0.00" timeLoss="32.85" rerouteNo="0" devices="tripinfo_driver_9" vType="DEFAULT_VEHTYPE" speedFactor="0.86" vaporized="traci"/>
    <tripinfo id="driver_30" depart="5.00" departLane="-619979111#1_0" departPos="4.86" departSpeed="0.00" departDelay="0.00" arrival="116.00" arrivalLane="721726242_0" arrivalPos="71.90" arrivalSpeed="0.00" duration="111.00" routeLength="563.10" waitingTime="61.00" waitingCount="2" stopTime="0.00" timeLoss="86.30" rerouteNo="1" devices="tripinfo_driver_30" vType="DEFAULT_VEHTYPE" speedFactor="1.18" vaporized="traci"/>
    <tripinfo id="driver_22" depart="4.00" departLane="-297445459_0" departPos="5.10" departSpeed="0.00" departDelay="0.00" arrival="117.00" arrivalLane="-297445459_0" arrivalPos="41.66" arrivalSpeed="7.71" duration="113.00" routeLength="428.62" waitingTime="46.00" waitingCount="1" stopTime="3.00" timeLoss="59.18" rerouteNo="1" devices="tripinfo_driver_22" vType="DEFAULT_VEHTYPE" speedFactor="0.97" vaporized=""/>
    <tripinfo id="driver_95" depart="82.00" departLane="717319387#0_0" departPos="0.20" departSpeed="0.00" departDelay="0.00" arrival="120.00" arrivalLane=":4759501833_0_0" arrivalPos="0.68" arrivalSpeed="0.01" duration="38.00" routeLength="217.97" waitingTime="10.00" waitingCount="2" stopTime="0.00" timeLoss="18.05" rerouteNo="0" devices="tripinfo_driver_95" vType="DEFAULT_VEHTYPE" speedFactor="0.95" vaporized="traci"/>
    <tripinfo id="driver_11" depart="2.00" departLane="619979109#1_0" departPos="0.63" departSpeed="0.00" departDelay="0.00" arrival="126.00" arrivalLane="721726242_0" arrivalPos="79.40" arrivalSpeed="0.00" duration="124.00" routeLength="206.07" waitingTime="105.00" waitingCount="2" stopTime="0.00" timeLoss="113.24" rerouteNo="0" devices="tripinfo_driver_11" vType="DEFAULT_VEHTYPE" speedFactor="1.03" vaporized="traci"/>
    <tripinfo id="driver_94" depart="72.00" departLane="26938401_0" departPos="5.10" departSpeed="0.00" departDelay="0.00" arrival="126.00" arrivalLane=":7231543988_0_1" arrivalPos="0.09" arrivalSpeed="0.00" duration="54.00" routeLength="189.78" waitingTime="33.00" waitingCount="1" stopTime="0.00" timeLoss="41.45" rerouteNo="0" devices="tripinfo_driver_94" vType="DEFAULT_VEHTYPE" speedFactor="0.96" vaporized="traci"/>
    <tripinfo id="driver_16" depart="3.00" departLane="-397145034#2_0" departPos="0.20" departSpeed="0.00" departDelay="0.00" arrival="133.00" arrivalLane="619979096#1_0" arrivalPos="8.75" arrivalSpeed="2.89" duration="130.00" routeLength="714.10" waitingTime="51.00" waitingCount="1" stopTime="0.00" timeLoss="70.13" rerouteNo="0" devices="tripinfo_driver_16" vType="DEFAULT_VEHTYPE" speedFactor="0.88" vaporized="traci"/>
    <tripinfo id="driver_84" depart="57.00" departLane="254758114#0_0" departPos="0.20" departSpeed="0.00" departDelay="0.00" arrival="138.00" arrivalLane="144346316#1_0" arrivalPos="126.79" arrivalSpeed="0.02" duration="81.00" routeLength="760.71" waitingTime="1.00" waitingCount="1" stopTime="3.00" timeLoss="28.91" rerouteNo="3" devices="tripinfo_driver_84" vType="DEFAULT_VEHTYPE" speedFactor="1.02" vaporized="traci"/>
    <tripinfo id="driver_78" depart="36.00" departLane="-619979105#1_0" departPos="4.54" departSpeed="0.00" departDelay="0.00" arrival="142.00" arrivalLane=":4061806118_1_0" arrivalPos="1.15" arrivalSpeed="2.15" duration="106.00" routeLength="385.81" waitingTime="44.00" waitingCount="3" stopTime="0.00" timeLoss="72.23" rerouteNo="0" devices="tripinfo_driver_78" vType="DEFAULT_VEHTYPE" speedFactor="1.03" vaporized="traci"/>
    <tripinfo id="driver_36" depart="7.00" departLane="-30029703#4_0" departPos="5.10" departSpeed="0.00" departDelay="0.00" arrival="144.00" arrivalLane=":295186045_0_1" arrivalPos="0.10" arrivalSpeed="17.89" duration="137.00" routeLength="1039.18" waitingTime="38.00" waitingCount="2" stopTime="0.00" timeLoss="71.81" rerouteNo="1" devices="tripinfo_driver_36" vType="DEFAULT_VEHTYPE" speedFactor="1.18" vaporized="traci"/>
    <tripinfo id="driver_80" depart="43.00" departLane="-1020512097#4_0" departPos="0.20" departSpeed="0.00" departDelay="0.00" arrival="144.00" arrivalLane=":65334023_0_0" arrivalPos="9.30" arrivalSpeed="12.92" duration="101.00" routeLength="436.73" waitingTime="48.00" waitingCount="2" stopTime="0.00" timeLoss="72.97" rerouteNo="0" devices="tripinfo_driver_80" vType="DEFAULT_VEHTYPE" speedFactor="1.02" vaporized="traci"/>
    <tripinfo id="driver_26" depart="5.00" departLane="674757887#2_0" departPos="0.20" departSpeed="0.00" departDelay="0.00" arrival="149.00" arrivalLane="254297761#0_0" arrivalPos="0.20" arrivalSpeed="7.08" duration="144.00" routeLength="476.82" waitingTime="84.00" waitingCount="3" stopTime="0.00" timeLoss="102.05" rerouteNo="0" devices="tripinfo_driver_26" vType="DEFAULT_VEHTYPE" speedFactor="0.92" vaporized=""/>
    <tripinfo id="driver_74" depart="20.00" departLane="-619979101_0" departPos="5.10" departSpeed="0.00" departDelay="0.00" arrival="151.00" arrivalLane="122498865_0" arrivalPos="19.34" arrivalSpeed="8.32" duration="131.00" routeLength="580.91" waitingTime="55.00" waitingCount="3" stopTime="0.00" timeLoss="98.03" rerouteNo="1" devices="tripinfo_driver_74" vType="DEFAULT_VEHTYPE" speedFactor="0.98" vaporized="traci"/>
    <tripinfo id="driver_104" depart="105.00" departLane="254758128_0" departPos="5.10" departSpeed="0.00" departDelay="0.00" arrival="152.00" arrivalLane="1035093273_0" arrivalPos="87.35" arrivalSpeed="5.42" duration="47.00" routeLength="185.25" waitingTime="17.00" waitingCount="1" stopTime="0.00" timeLoss="23.53" rerouteNo="47" devices="tripinfo_driver_104" vType="DEFAULT_VEHTYPE" speedFactor="0.92" vaporized="traci"/>
    <tripinfo id="driver_27" depart="5.00" departLane="111552058#0_0" departPos="0.69" departSpeed="0.00" departDelay="0.00" arrival="153.00" arrivalLane="111560680#0_0" arrivalPos="2.92" arrivalSpeed="6.69" duration="148.00" routeLength="680.23" waitingTime="80.00" waitingCount="3" stopTime="0.00" timeLoss="107.00" rerouteNo="0" devices="tripinfo_driver_27" vType="DEFAULT_VEHTYPE" speedFactor="0.95" vaporized=""/>
    <tripinfo id="driver_47" depart="8.00" departLane="-277480564_0" departPos="5.10" departSpeed="0.00" departDelay="0.00" arrival="155.00" arrivalLane="473325693#0_0" arrivalPos="88.11" arrivalSpeed="7.54" duration="147.00" routeLength="819.87" waitingTime="15.00" waitingCount="3" stopTime="3.00" timeLoss="38.02" rerouteNo="1" devices="tripinfo_driver_47" vType="DEFAULT_VEHTYPE" speedFactor="0.88" vaporized=""/>
    <tripinfo id="driver_86" depart="59.00" departLane="254758131#2_0" departPos="5.10" departSpeed="0.00" departDelay="0.00" arrival="156.00" arrivalLane="27400639#0_1" arrivalPos="125.27" arrivalSpeed="6.60" duration="97.00" routeLength="359.02" waitingTime="36.00" waitingCount="1" stopTime="0.00" timeLoss="47.11" rerouteNo="0" devices="tripinfo_driver_86" vType="DEFAULT_VEHTYPE" speedFactor="0.83" vaporized="traci"/>
    <tripinfo id="driver_14" depart="3.00" departLane="-620169745#0_0" departPos="5.10" departSpeed="0.00" departDelay="0.00" arrival="156.00" arrivalLane="1032777735_0" arrivalPos="87.48" arrivalSpeed="8.07" duration="153.00" routeLength="1131.91" waitingTime="39.00" waitingCount="2" stopTime="2.00" timeLoss="77.72" rerouteNo="3" devices="tripinfo_driver_14 person_driver_14" vType="DEFAULT_VEHTYPE" speedFactor="0.99" vaporized=""/>
    <personinfo id="customer_8" depart="89.00" type="DEFAULT_PEDTYPE">
        <stop duration="52.00" arrival="141.00" arrivalPos="0.00" actType="waiting"/>
        <ride waitingTime="3.00" vehicle="driver_14" depart="144.00" arrival="156.00" arrivalPos="87.48" duration="12.00" routeLength="87.36" timeLoss="2.72"/>
        <stop duration="1.00" arrival="157.00" arrivalPos="0.30" actType="waiting"/>
    </personinfo>
    <tripinfo id="driver_85" depart="57.00" departLane="502795946#1_0" departPos="5.10" departSpeed="0.00" departDelay="0.00" arrival="160.00" arrivalLane="-468552082#2_0" arrivalPos="1.77" arrivalSpeed="2.31" duration="103.00" routeLength="525.47" waitingTime="18.00" waitingCount="1" stopTime="3.00" timeLoss="35.02" rerouteNo="1" devices="tripinfo_driver_85" vType="DEFAULT_VEHTYPE" speedFactor="0.89" vaporized=""/>
    <tripinfo id="driver_28" depart="5.00" departLane="968937452#1_0" departPos="5.10" departSpeed="0.00" departDelay="0.00" arrival="164.00" arrivalLane="980893267#1_1" arrivalPos="29.67" arrivalSpeed="9.22" duration="159.00" routeLength="567.17" waitingTime="82.00" waitingCount="3" stopTime="0.00" timeLoss="101.15" rerouteNo="1" devices="tripinfo_driver_28" vType="DEFAULT_VEHTYPE" speedFactor="1.13" vaporized="traci"/>
    <tripinfo id="driver_102" depart="101.00" departLane="-425516650#0_0" departPos="5.10" departSpeed="0.00" departDelay="0.00" arrival="164.00" arrivalLane="27054209_1" arrivalPos="1.95" arrivalSpeed="6.19" duration="63.00" routeLength="291.13" waitingTime="29.00" waitingCount="1" stopTime="0.00" timeLoss="50.23" rerouteNo="1" devices="tripinfo_driver_102" vType="DEFAULT_VEHTYPE" speedFactor="1.10" vaporized="traci"/>
    <tripinfo id="driver_96" depart="87.00" departLane="-225853134#2_0" departPos="3.69" departSpeed="0.00" departDelay="0.00" arrival="167.00" arrivalLane="26988051#0_1" arrivalPos="0.20" arrivalSpeed="10.90" duration="80.00" routeLength="543.67" waitingTime="13.00" waitingCount="2" stopTime="0.00" timeLoss="30.18" rerouteNo="0" devices="tripinfo_driver_96" vType="DEFAULT_VEHTYPE" speedFactor="0.89" vaporized=""/>
    <tripinfo id="driver_15" depart="3.00" departLane="254758131#2_0" departPos="5.10" departSpeed="0.00" departDelay="0.00" arrival="170.00" arrivalLane=":65372925_4_0" arrivalPos="4.57" arrivalSpeed="7.09" duration="167.00" routeLength="917.12" waitingTime="33.00" waitingCount="2" stopTime="0.00" timeLoss="53.95" rerouteNo="1" devices="tripinfo_driver_15" vType="DEFAULT_VEHTYPE" speedFactor="0.93" vaporized="traci"/>
    <tripinfo id="driver_23" depart="5.00" departLane="-146155465#1_0" departPos="5.10" departSpeed="0.00" departDelay="0.00" arrival="177.00" arrivalLane="-87376682#1_0" arrivalPos="10.56" arrivalSpeed="0.00" duration="172.00" routeLength="806.96" waitingTime="68.00" waitingCount="2" stopTime="3.00" timeLoss="91.58" rerouteNo="2" devices="tripinfo_driver_23" vType="DEFAULT_VEHTYPE" speedFactor="0.89" vaporized="traci"/>
    <tripinfo id="driver_4" depart="1.00" departLane="-254758120#0_0" departPos="5.10" departSpeed="0.00" departDelay="0.00" arrival="181.00" arrivalLane=":65327144_14_0" arrivalPos="0.77" arrivalSpeed="1.78" duration="180.00" routeLength="958.98" waitingTime="46.00" waitingCount="3" stopTime="3.00" timeLoss="69.83" rerouteNo="2" devices="tripinfo_driver_4" vType="DEFAULT_VEHTYPE" speedFactor="1.03" vaporized="traci"/>
    <tripinfo id="driver_42" depart="7.00" departLane="417226858#2_0" departPos="5.10" departSpeed="0.00" departDelay="0.00" arrival="183.00" arrivalLane=":4061806119_1_0" arrivalPos="11.49" arrivalSpeed="5.56" duration="176.00" routeLength="436.46" waitingTime="126.00" waitingCount="3" stopTime="0.00" timeLoss="146.26" rerouteNo="0" devices="tripinfo_driver_42" vType="DEFAULT_VEHTYPE" speedFactor="1.04" vaporized="traci"/>
    <tripinfo id="driver_100" depart="97.00" departLane="-24588081#0_0" departPos="5.10" departSpeed="0.00" departDelay="0.00" arrival="183.00" arrivalLane="1035093273_1" arrivalPos="1.69" arrivalSpeed="5.71" duration="86.00" routeLength="305.14" waitingTime="39.00" waitingCount="2" stopTime="0.00" timeLoss="58.00" rerouteNo="0" devices="tripinfo_driver_100" vType="DEFAULT_VEHTYPE" speedFactor="0.93" vaporized="traci"/>
    <tripinfo id="driver_70" depart="11.00" departLane="-228196396#1_0" departPos="0.20" departSpeed="0.00" departDelay="0.00" arrival="193.00" arrivalLane="51392402_0" arrivalPos="118.27" arrivalSpeed="26.32" duration="182.00" routeLength="1069.17" waitingTime="70.00" waitingCount="4" stopTime="0.00" timeLoss="125.33" rerouteNo="1" devices="tripinfo_driver_70" vType="DEFAULT_VEHTYPE" speedFactor="0.97" vaporized="traci"/>
    <tripinfo id="driver_98" depart="94.00" departLane="225806055_0" departPos="5.10" departSpeed="0.00" departDelay="0.00" arrival="193.00" arrivalLane=":1270745642_0_1" arrivalPos="0.06" arrivalSpeed="0.00" duration="99.00" routeLength="361.75" waitingTime="65.00" waitingCount="3" stopTime="0.00" timeLoss="83.78" rerouteNo="0" devices="tripinfo_driver_98" vType="DEFAULT_VEHTYPE" speedFactor="1.03" vaporized="traci"/>
    <tripinfo id="driver_48" depart="9.00" departLane="30029866#1_0" departPos="5.10" departSpeed="0.00" departDelay="0.00" arrival="195.00" arrivalLane=":65312662_9_0" arrivalPos="5.38" arrivalSpeed="18.89" duration="186.00" routeLength="1174.91" waitingTime="59.00" waitingCount="2" stopTime="0.00" timeLoss="88.85" rerouteNo="1" devices="tripinfo_driver_48" vType="DEFAULT_VEHTYPE" speedFactor="0.85" vaporized="traci"/>
    <tripinfo id="driver_35" depart="7.00" departLane="-25751201_0" departPos="5.10" departSpeed="0.00" departDelay="0.00" arrival="196.00" arrivalLane="-8916564_0" arrivalPos="81.87" arrivalSpeed="9.52" duration="189.00" routeLength="1506.36" waitingTime="20.00" waitingCount="1" stopTime="3.00" timeLoss="62.61" rerouteNo="1" devices="tripinfo_driver_35" vType="DEFAULT_VEHTYPE" speedFactor="0.97" vaporized=""/>
    <tripinfo id="driver_113" depart="154.00" departLane="777343790_0" departPos="5.10" departSpeed="0.00" departDelay="0.00" arrival="196.00" arrivalLane="-365816000#1_0" arrivalPos="0.20" arrivalSpeed="8.69" duration="42.00" routeLength="587.46" waitingTime="0.00" waitingCount="0" stopTime="0.00" timeLoss="18.58" rerouteNo="0" devices="tripinfo_driver_113" vType="DEFAULT_VEHTYPE" speedFactor="1.12" vaporized=""/>
    <tripinfo id="driver_72" depart="11.00" departLane="512038661_0" departPos="2.89" departSpeed="0.00" departDelay="0.00" arrival="197.00" arrivalLane="403877660_0" arrivalPos="9.21" arrivalSpeed="9.85" duration="186.00" routeLength="1041.04" waitingTime="81.00" waitingCount="4" stopTime="0.00" timeLoss="124.91" rerouteNo="1" devices="tripinfo_driver_72" vType="DEFAULT_VEHTYPE" speedFactor="1.06" vaporized="traci"/>
    <tripinfo id="driver_44" depart="8.00" departLane="-29059461#1_0" departPos="0.20" departSpeed="0.00" departDelay="0.00" arrival="198.00" arrivalLane="-29059461#1_0" arrivalPos="0.20" arrivalSpeed="1.42" duration="190.00" routeLength="463.07" waitingTime="129.00" waitingCount="5" stopTime="2.00" timeLoss="161.34" rerouteNo="1" devices="tripinfo_driver_44 person_driver_44" vType="DEFAULT_VEHTYPE" speedFactor="1.09" vaporized=""/>