<?xml version="1.0" encoding="UTF-8"?>

<!-- generated on 2022-08-26 13:36:49 by Eclipse SUMO sumo Version 1.14.1
<configuration xmlns:xsi="http://www.w3.org/2001/XMLSchema-instance" xsi:noNamespaceSchemaLocation="http://sumo.dlr.de/xsd/sumoConfiguration.xsd">

    <input>
        <net-file value="net_config/san-francisco.net.xml"/>
        <additional-files value="net_config/add.add.xml"/>
    </input>

    <output>
        <tripinfo-output value="net_config/tripinfo.xml"/>
    </output>

    <time>
        <step-length value="1"/>
    </time>

    <processing>
        <time-to-teleport value="0"/>
    </processing>

    <traci_server>
        <remote-port value="53512"/>
    </traci_server>

    <gui_only>
        <gui-settings-file value="net_config/gui-settings.cfg"/>
    </gui_only>

</configuration>
-->

<tripinfos xmlns:xsi="http://www.w3.org/2001/XMLSchema-instance" xsi:noNamespaceSchemaLocation="http://sumo.dlr.de/xsd/tripinfo_file.xsd">
    <tripinfo id="driver_38" depart="5.00" departLane="-515595963_0" departPos="5.10" departSpeed="0.00" departDelay="1.00" arrival="6.00" arrivalLane="-515595963_0" arrivalPos="5.10" arrivalSpeed="0.00" duration="1.00" routeLength="0.00" waitingTime="0.00" waitingCount="0" stopTime="0.00" timeLoss="0.00" rerouteNo="0" devices="tripinfo_driver_38" vType="DEFAULT_VEHTYPE" speedFactor="1.03" vaporized="traci"/>
    <tripinfo id="driver_30" depart="4.00" departLane="254971070#5_0" departPos="5.10" departSpeed="0.00" departDelay="0.00" arrival="9.00" arrivalLane="37126390#0_0" arrivalPos="6.89" arrivalSpeed="7.24" duration="5.00" routeLength="17.00" waitingTime="0.00" waitingCount="0" stopTime="0.00" timeLoss="3.24" rerouteNo="0" devices="tripinfo_driver_30" vType="DEFAULT_VEHTYPE" speedFactor="1.01" vaporized="traci"/>
    <tripinfo id="driver_36" depart="4.00" departLane="968937450#1_0" departPos="5.10" departSpeed="0.00" departDelay="0.00" arrival="9.00" arrivalLane="968937450#1_0" arrivalPos="26.04" arrivalSpeed="7.88" duration="5.00" routeLength="20.94" waitingTime="0.00" waitingCount="0" stopTime="0.00" timeLoss="3.32" rerouteNo="0" devices="tripinfo_driver_36" vType="DEFAULT_VEHTYPE" speedFactor="1.10" vaporized="traci"/>
    <tripinfo id="driver_50" depart="6.00" departLane="772536172_0" departPos="5.10" departSpeed="0.00" departDelay="0.00" arrival="10.00" arrivalLane="772536172_1" arrivalPos="16.11" arrivalSpeed="5.32" duration="4.00" routeLength="11.01" waitingTime="0.00" waitingCount="0" stopTime="0.00" timeLoss="2.61" rerouteNo="0" devices="tripinfo_driver_50" vType="DEFAULT_VEHTYPE" speedFactor="1.02" vaporized="traci"/>
    <tripinfo id="driver_11" depart="2.00" departLane="-399163470#2_0" departPos="5.10" departSpeed="0.00" departDelay="0.00" arrival="11.00" arrivalLane="-399163470#1_0" arrivalPos="16.10" arrivalSpeed="14.83" duration="9.00" routeLength="64.52" waitingTime="0.00" waitingCount="0" stopTime="0.00" timeLoss="3.86" rerouteNo="0" devices="tripinfo_driver_11" vType="DEFAULT_VEHTYPE" speedFactor="1.12" vaporized="traci"/>
    <tripinfo id="driver_25" depart="3.00" departLane="667569398#2_0" departPos="0.20" departSpeed="0.00" departDelay="0.00" arrival="11.00" arrivalLane="667569395_0" arrivalPos="8.41" arrivalSpeed="12.81" duration="8.00" routeLength="51.80" waitingTime="0.00" waitingCount="0" stopTime="0.00" timeLoss="4.44" rerouteNo="0" devices="tripinfo_driver_25" vType="DEFAULT_VEHTYPE" speedFactor="0.95" vaporized="traci"/>
    <tripinfo id="driver_54" depart="6.00" departLane="277480563_0" departPos="5.10" departSpeed="0.00" departDelay="0.00" arrival="11.00" arrivalLane="277480563_2" arrivalPos="22.24" arrivalSpeed="6.76" duration="5.00" routeLength="17.14" waitingTime="0.00" waitingCount="0" stopTime="0.00" timeLoss="1.87" rerouteNo="0" devices="tripinfo_driver_54" vType="DEFAULT_VEHTYPE" speedFactor="0.90" vaporized="traci"/>
    <tripinfo id="driver_70" depart="8.00" departLane="-27167298#7_0" departPos="0.20" departSpeed="0.00" departDelay="0.00" arrival="11.00" arrivalLane="-27167298#6_0" arrivalPos="5.87" arrivalSpeed="4.29" duration="3.00" routeLength="6.75" waitingTime="0.00" waitingCount="0" stopTime="0.00" timeLoss="1.54" rerouteNo="0" devices="tripinfo_driver_70" vType="DEFAULT_VEHTYPE" speedFactor="1.06" vaporized="traci"/>
    <tripinfo id="driver_43" depart="5.00" departLane="461084153#2_0" departPos="5.10" departSpeed="0.00" departDelay="0.00" arrival="14.00" arrivalLane="461084153#2_0" arrivalPos="79.45" arrivalSpeed="14.29" duration="9.00" routeLength="74.35" waitingTime="0.00" waitingCount="0" stopTime="0.00" timeLoss="3.08" rerouteNo="0" devices="tripinfo_driver_43" vType="DEFAULT_VEHTYPE" speedFactor="1.09" vaporized="traci"/>
    <tripinfo id="driver_52" depart="6.00" departLane="255330068#0_0" departPos="5.10" departSpeed="0.00" departDelay="0.00" arrival="14.00" arrivalLane="255330068#0_3" arrivalPos="57.98" arrivalSpeed="10.79" duration="8.00" routeLength="52.88" waitingTime="0.00" waitingCount="0" stopTime="0.00" timeLoss="5.10" rerouteNo="0" devices="tripinfo_driver_52" vType="DEFAULT_VEHTYPE" speedFactor="1.00" vaporized="traci"/>
    <tripinfo id="driver_57" depart="7.00" departLane="-425516661#2_0" departPos="5.10" departSpeed="0.00" departDelay="0.00" arrival="16.00" arrivalLane="-425516661#2_0" arrivalPos="75.46" arrivalSpeed="14.54" duration="9.00" routeLength="70.36" waitingTime="0.00" waitingCount="0" stopTime="0.00" timeLoss="3.32" rerouteNo="0" devices="tripinfo_driver_57" vType="DEFAULT_VEHTYPE" speedFactor="1.08" vaporized="traci"/>
    <tripinfo id="driver_82" depart="9.00" departLane="425516617#7_0" departPos="1.11" departSpeed="0.00" departDelay="0.00" arrival="17.00" arrivalLane="425516617#7_0" arrivalPos="1.11" arrivalSpeed="0.00" duration="8.00" routeLength="0.00" waitingTime="7.00" waitingCount="1" stopTime="0.00" timeLoss="7.00" rerouteNo="0" devices="tripinfo_driver_82" vType="DEFAULT_VEHTYPE" speedFactor="0.98" vaporized="traci"/>
    <tripinfo id="driver_23" depart="3.00" departLane="26988009#1_0" departPos="5.10" departSpeed="0.00" departDelay="0.00" arrival="18.00" arrivalLane="26988009#1_0" arrivalPos="86.43" arrivalSpeed="0.00" duration="15.00" routeLength="81.33" waitingTime="2.00" waitingCount="1" stopTime="0.00" timeLoss="9.81" rerouteNo="0" devices="tripinfo_driver_23" vType="DEFAULT_VEHTYPE" speedFactor="0.87" vaporized="traci"/>
    <tripinfo id="driver_6" depart="1.00" departLane="-111586254_0" departPos="5.10" departSpeed="0.00" departDelay="0.00" arrival="19.00" arrivalLane="144489134#2_0" arrivalPos="0.94" arrivalSpeed="4.97" duration="18.00" routeLength="172.96" waitingTime="0.00" waitingCount="0" stopTime="0.00" timeLoss="7.65" rerouteNo="0" devices="tripinfo_driver_6" vType="DEFAULT_VEHTYPE" speedFactor="0.94" vaporized="traci"/>
    <tripinfo id="driver_13" depart="2.00" departLane="288065246#0_0" departPos="5.10" departSpeed="0.00" departDelay="0.00" arrival="19.00" arrivalLane="399142440#4_0" arrivalPos="89.87" arrivalSpeed="12.39" duration="17.00" routeLength="128.92" waitingTime="0.00" waitingCount="0" stopTime="0.00" timeLoss="5.12" rerouteNo="0" devices="tripinfo_driver_13" vType="DEFAULT_VEHTYPE" speedFactor="0.93" vaporized="traci"/>
    <tripinfo id="driver_17" depart="2.00" departLane="461017935_0" departPos="5.10" departSpeed="0.00" departDelay="0.00" arrival="19.00" arrivalLane=":65334128_1_1" arrivalPos="7.40" arrivalSpeed="9.80" duration="17.00" routeLength="133.04" waitingTime="0.00" waitingCount="0" stopTime="0.00" timeLoss="3.15" rerouteNo="0" devices="tripinfo_driver_17" vType="DEFAULT_VEHTYPE" speedFactor="1.16" vaporized="traci"/>
    <tripinfo id="driver_91" depart="10.00" departLane="-224384018#1_0" departPos="4.34" departSpeed="0.00" departDelay="0.00" arrival="19.00" arrivalLane="-619979102#1_0" arrivalPos="3.66" arrivalSpeed="8.96" duration="9.00" routeLength="62.11" waitingTime="0.00" waitingCount="0" stopTime="0.00" timeLoss="4.47" rerouteNo="0" devices="tripinfo_driver_91" vType="DEFAULT_VEHTYPE" speedFactor="1.09" vaporized="traci"/>
    <tripinfo id="driver_28" depart="4.00" departLane="402111597_0" departPos="5.10" departSpeed="0.00" departDelay="0.00" arrival="20.00" arrivalLane="966201482_0" arrivalPos="132.77" arrivalSpeed="12.74" duration="16.00" routeLength="150.69" waitingTime="0.00" waitingCount="0" stopTime="0.00" timeLoss="3.56" rerouteNo="0" devices="tripinfo_driver_28" vType="DEFAULT_VEHTYPE" speedFactor="1.18" vaporized="traci"/>
    <tripinfo id="driver_56" depart="7.00" departLane="146155127_0" departPos="5.10" departSpeed="0.00" departDelay="0.00" arrival="20.00" arrivalLane="8916764_0" arrivalPos="18.47" arrivalSpeed="12.41" duration="13.00" routeLength="112.27" waitingTime="0.00" waitingCount="0" stopTime="0.00" timeLoss="3.66" rerouteNo="0" devices="tripinfo_driver_56" vType="DEFAULT_VEHTYPE" speedFactor="0.97" vaporized="traci"/>
    <tripinfo id="driver_112" depart="21.00" departLane="619979101_0" departPos="5.10" departSpeed="0.00" departDelay="3.00" arrival="22.00" arrivalLane="619979101_0" arrivalPos="5.10" arrivalSpeed="0.00" duration="1.00" routeLength="0.00" waitingTime="0.00" waitingCount="0" stopTime="0.00" timeLoss="0.00" rerouteNo="0" devices="tripinfo_driver_112" vType="DEFAULT_VEHTYPE" speedFactor="1.00" vaporized="traci"/>
    <tripinfo id="driver_49" depart="6.00" departLane="286003244#3_0" departPos="2.94" departSpeed="0.00" departDelay="0.00" arrival="22.00" arrivalLane="-721174652_0" arrivalPos="12.89" arrivalSpeed="8.02" duration="16.00" routeLength="143.19" waitingTime="0.00" waitingCount="0" stopTime="0.00" timeLoss="5.39" rerouteNo="0" devices="tripinfo_driver_49" vType="DEFAULT_VEHTYPE" speedFactor="1.17" vaporized="traci"/>
    <tripinfo id="driver_64" depart="7.00" departLane="-619979101_0" departPos="5.10" departSpeed="0.00" departDelay="0.00" arrival="22.00" arrivalLane="619979101_0" arrivalPos="19.32" arrivalSpeed="8.16" duration="15.00" routeLength="84.97" waitingTime="0.00" waitingCount="0" stopTime="0.00" timeLoss="8.45" rerouteNo="0" devices="tripinfo_driver_64" vType="DEFAULT_VEHTYPE" speedFactor="0.91" vaporized="traci"/>
    <tripinfo id="driver_2" depart="1.00" departLane="397146707_0" departPos="5.10" departSpeed="0.00" departDelay="0.00" arrival="23.00" arrivalLane="29023741#0_0" arrivalPos="81.16" arrivalSpeed="10.87" duration="22.00" routeLength="203.96" waitingTime="0.00" waitingCount="0" stopTime="0.00" timeLoss="5.97" rerouteNo="0" devices="tripinfo_driver_2" vType="DEFAULT_VEHTYPE" speedFactor="1.03" vaporized="traci"/>
    <tripinfo id="driver_45" depart="5.00" departLane="-263855294#1_0" departPos="0.79" departSpeed="0.00" departDelay="0.00" arrival="23.00" arrivalLane="397145034#1_0" arrivalPos="3.44" arrivalSpeed="6.87" duration="18.00" routeLength="96.24" waitingTime="0.00" waitingCount="0" stopTime="0.00" timeLoss="4.93" rerouteNo="0" devices="tripinfo_driver_45" vType="DEFAULT_VEHTYPE" speedFactor="0.90" vaporized="traci"/>
    <tripinfo id="driver_59" depart="7.00" departLane="-588340588_0" departPos="5.10" departSpeed="0.00" departDelay="0.00" arrival="23.00" arrivalLane=":65332853_11_0" arrivalPos="4.54" arrivalSpeed="3.53" duration="16.00" routeLength="128.05" waitingTime="0.00" waitingCount="0" stopTime="0.00" timeLoss="4.68" rerouteNo="0" devices="tripinfo_driver_59" vType="DEFAULT_VEHTYPE" speedFactor="1.02" vaporized="traci"/>
    <tripinfo id="driver_87" depart="9.00" departLane="-88572874_0" departPos="5.10" departSpeed="0.00" departDelay="0.00" arrival="23.00" arrivalLane="88572887#2_0" arrivalPos="0.30" arrivalSpeed="3.39" duration="14.00" routeLength="115.13" waitingTime="0.00" waitingCount="0" stopTime="0.00" timeLoss="8.18" rerouteNo="3" devices="tripinfo_driver_87" vType="DEFAULT_VEHTYPE" speedFactor="1.02" vaporized="traci"/>
    <tripinfo id="driver_14" depart="2.00" departLane="598020856#1_0" departPos="5.10" departSpeed="0.00" departDelay="0.00" arrival="24.00" arrivalLane="598020856#1_2" arrivalPos="85.79" arrivalSpeed="0.00" duration="22.00" routeLength="80.69" waitingTime="10.00" waitingCount="1" stopTime="0.00" timeLoss="16.87" rerouteNo="0" devices="tripinfo_driver_14" vType="DEFAULT_VEHTYPE" speedFactor="0.88" vaporized="traci"/>
    <tripinfo id="driver_51" depart="6.00" departLane="111586257#0_0" departPos="0.20" departSpeed="0.00" departDelay="0.00" arrival="24.00" arrivalLane="111586257#1_0" arrivalPos="121.76" arrivalSpeed="0.02" duration="18.00" routeLength="122.09" waitingTime="1.00" waitingCount="1" stopTime="0.00" timeLoss="11.99" rerouteNo="0" devices="tripinfo_driver_51" vType="DEFAULT_VEHTYPE" speedFactor="1.10" vaporized="traci"/>
    <tripinfo id="driver_110" depart="17.00" departLane="254758115#0_0" departPos="0.20" departSpeed="0.00" departDelay="0.00" arrival="24.00" arrivalLane="254758115#1_2" arrivalPos="32.91" arrivalSpeed="10.83" duration="7.00" routeLength="37.38" waitingTime="0.00" waitingCount="0" stopTime="0.00" timeLoss="2.98" rerouteNo="0" devices="tripinfo_driver_110" vType="DEFAULT_VEHTYPE" speedFactor="0.92" vaporized="traci"/>
    <tripinfo id="driver_115" depart="23.00" departLane="397119705#1_0" departPos="5.10" departSpeed="0.00" departDelay="0.00" arrival="24.00" arrivalLane="397119705#1_0" arrivalPos="5.10" arrivalSpeed="0.00" duration="1.00" routeLength="0.00" waitingTime="0.00" waitingCount="0" stopTime="0.00" timeLoss="0.00" rerouteNo="0" devices="tripinfo_driver_115" vType="DEFAULT_VEHTYPE" speedFactor="0.94" vaporized="traci"/>
    <tripinfo id="driver_27" depart="4.00" departLane="-514650997#0_0" departPos="5.10" departSpeed="0.00" departDelay="0.00" arrival="25.00" arrivalLane=":65323322_7_0" arrivalPos="9.02" arrivalSpeed="11.97" duration="21.00" routeLength="190.82" waitingTime="0.00" waitingCount="0" stopTime="0.00" timeLoss="3.23" rerouteNo="0" devices="tripinfo_driver_27" vType="DEFAULT_VEHTYPE" speedFactor="0.93" vaporized="traci"/>
    <tripinfo id="driver_69" depart="8.00" departLane="425516651_0" departPos="5.10" departSpeed="0.00" departDelay="0.00" arrival="26.00" arrivalLane="598743249#1_0" arrivalPos="1.55" arrivalSpeed="0.00" duration="18.00" routeLength="125.37" waitingTime="3.00" waitingCount="1" stopTime="0.00" timeLoss="11.00" rerouteNo="0" devices="tripinfo_driver_69" vType="DEFAULT_VEHTYPE" speedFactor="0.94" vaporized="traci"/>
    <tripinfo id="driver_106" depart="11.00" departLane="1032777735_0" departPos="5.10" departSpeed="0.00" departDelay="0.00" arrival="26.00" arrivalLane="1032777735_0" arrivalPos="86.43" arrivalSpeed="0.30" duration="15.00" routeLength="81.33" waitingTime="0.00" waitingCount="0" stopTime="0.00" timeLoss="4.19" rerouteNo="0" devices="tripinfo_driver_106" vType="DEFAULT_VEHTYPE" speedFactor="0.93" vaporized="traci"/>
    <tripinfo id="driver_65" depart="7.00" departLane="1035093273_0" departPos="5.10" departSpeed="0.00" departDelay="0.00" arrival="27.00" arrivalLane="-742976231_0" arrivalPos="53.24" arrivalSpeed="8.70" duration="20.00" routeLength="147.22" waitingTime="0.00" waitingCount="0" stopTime="0.00" timeLoss="2.91" rerouteNo="0" devices="tripinfo_driver_65" vType="DEFAULT_VEHTYPE" speedFactor="1.04" vaporized="traci"/>
    <tripinfo id="driver_15" depart="2.00" departLane="254756525#1_0" departPos="5.10" departSpeed="0.00" departDelay="0.00" arrival="28.00" arrivalLane="425516649#1_3" arrivalPos="3.29" arrivalSpeed="0.00" duration="26.00" routeLength="220.05" waitingTime="3.00" waitingCount="1" stopTime="0.00" timeLoss="14.10" rerouteNo="0" devices="tripinfo_driver_15" vType="DEFAULT_VEHTYPE" speedFactor="0.94" vaporized="traci"/>
    <tripinfo id="driver_40" depart="5.00" departLane="225847513_0" departPos="5.10" departSpeed="0.00" departDelay="0.00" arrival="28.00" arrivalLane="-225847513_0" arrivalPos="33.07" arrivalSpeed="9.55" duration="23.00" routeLength="163.24" waitingTime="0.00" waitingCount="0" stopTime="0.00" timeLoss="4.83" rerouteNo="0" devices="tripinfo_driver_40" vType="DEFAULT_VEHTYPE" speedFactor="1.09" vaporized="traci"/>
    <tripinfo id="driver_18" depart="2.00" departLane="-515595963_0" departPos="5.10" departSpeed="0.00" departDelay="0.00" arrival="29.00" arrivalLane="502825982#0_0" arrivalPos="42.01" arrivalSpeed="8.15" duration="27.00" routeLength="194.56" waitingTime="0.00" waitingCount="0" stopTime="0.00" timeLoss="4.39" rerouteNo="0" devices="tripinfo_driver_18" vType="DEFAULT_VEHTYPE" speedFactor="1.02" vaporized="traci"/>
    <tripinfo id="driver_34" depart="4.00" departLane="513676833#0_0" departPos="0.20" departSpeed="0.00" departDelay="0.00" arrival="29.00" arrivalLane="-513676830#1_0" arrivalPos="40.50" arrivalSpeed="0.03" duration="25.00" routeLength="187.68" waitingTime="1.00" waitingCount="1" stopTime="0.00" timeLoss="6.75" rerouteNo="0" devices="tripinfo_driver_34" vType="DEFAULT_VEHTYPE" speedFactor="0.97" vaporized="traci"/>
    <tripinfo id="driver_48" depart="6.00" departLane="-674757876#2_0" departPos="1.63" departSpeed="0.00" departDelay="0.00" arrival="29.00" arrivalLane="674757876#1_0" arrivalPos="68.97" arrivalSpeed="15.47" duration="23.00" routeLength="202.68" waitingTime="0.00" waitingCount="0" stopTime="0.00" timeLoss="9.85" rerouteNo="0" devices="tripinfo_driver_48" vType="DEFAULT_VEHTYPE" speedFactor="0.85" vaporized="traci"/>
    <tripinfo id="driver_39" depart="4.00" departLane="-739669067#1_0" departPos="5.10" departSpeed="0.00" departDelay="0.00" arrival="29.00" arrivalLane="-204884121#0_0" arrivalPos="8.63" arrivalSpeed="15.60" duration="25.00" routeLength="263.25" waitingTime="0.00" waitingCount="0" stopTime="0.00" timeLoss="10.75" rerouteNo="0" devices="tripinfo_driver_39" vType="DEFAULT_VEHTYPE" speedFactor="0.96" vaporized=""/>
    <tripinfo id="driver_44" depart="5.00" departLane="254297764_0" departPos="5.10" departSpeed="0.00" departDelay="0.00" arrival="30.00" arrivalLane="721174655_2" arrivalPos="41.81" arrivalSpeed="0.00" duration="25.00" routeLength="114.06" waitingTime="10.00" waitingCount="1" stopTime="0.00" timeLoss="18.85" rerouteNo="0" devices="tripinfo_driver_44" vType="DEFAULT_VEHTYPE" speedFactor="1.00" vaporized="traci"/>
    <tripinfo id="driver_31" depart="4.00" departLane="-27050839#3_0" departPos="5.10" departSpeed="0.00" departDelay="0.00" arrival="30.00" arrivalLane="-27043588#1_0" arrivalPos="0.20" arrivalSpeed="4.09" duration="26.00" routeLength="217.00" waitingTime="0.00" waitingCount="0" stopTime="0.00" timeLoss="9.46" rerouteNo="0" devices="tripinfo_driver_31" vType="DEFAULT_VEHTYPE" speedFactor="1.17" vaporized=""/>
    <tripinfo id="driver_111" depart="18.00" departLane="30030472_0" departPos="5.10" departSpeed="0.00" departDelay="0.00" arrival="30.00" arrivalLane="-148874366_0" arrivalPos="0.20" arrivalSpeed="15.51" duration="12.00" routeLength="101.94" waitingTime="0.00" waitingCount="0" stopTime="0.00" timeLoss="4.09" rerouteNo="0" devices="tripinfo_driver_111" vType="DEFAULT_VEHTYPE" speedFactor="1.18" vaporized=""/>
    <tripinfo id="driver_33" depart="4.00" departLane="133376114#2_0" departPos="1.44" departSpeed="0.00" departDelay="0.00" arrival="31.00" arrivalLane=":65326722_4_0" arrivalPos="1.05" arrivalSpeed="2.05" duration="27.00" routeLength="101.01" waitingTime="12.00" waitingCount="1" stopTime="0.00" timeLoss="18.74" rerouteNo="0" devices="tripinfo_driver_33" vType="DEFAULT_VEHTYPE" speedFactor="1.02" vaporized="traci"/>
    <tripinfo id="driver_63" depart="7.00" departLane="-721174653_0" departPos="5.10" departSpeed="0.00" departDelay="0.00" arrival="31.00" arrivalLane="144489134#2_0" arrivalPos="43.27" arrivalSpeed="12.83" duration="24.00" routeLength="241.31" waitingTime="0.00" waitingCount="0" stopTime="0.00" timeLoss="8.74" rerouteNo="0" devices="tripinfo_driver_63" vType="DEFAULT_VEHTYPE" speedFactor="0.91" vaporized="traci"/>
    <tripinfo id="driver_35" depart="4.00" departLane="224199018#6_0" departPos="2.27" departSpeed="0.00" departDelay="0.00" arrival="32.00" arrivalLane="27054213#2_1" arrivalPos="2.74" arrivalSpeed="0.00" duration="28.00" routeLength="189.62" waitingTime="6.00" waitingCount="1" stopTime="0.00" timeLoss="19.88" rerouteNo="0" devices="tripinfo_driver_35" vType="DEFAULT_VEHTYPE" speedFactor="1.18" vaporized="traci"/>
    <tripinfo id="driver_60" depart="7.00" departLane="598020856#0_0" departPos="1.66" departSpeed="0.00" departDelay="0.00" arrival="32.00" arrivalLane="598020856#1_2" arrivalPos="85.79" arrivalSpeed="0.00" duration="25.00" routeLength="86.06" waitingTime="10.00" waitingCount="2" stopTime="0.00" timeLoss="20.08" rerouteNo="0" devices="tripinfo_driver_60" vType="DEFAULT_VEHTYPE" speedFactor="0.99" vaporized="traci"/>
    <tripinfo id="driver_0" depart="1.00" departLane="-514671065#1_0" departPos="5.10" departSpeed="0.00" departDelay="0.00" arrival="33.00" arrivalLane="-514671065#1_0" arrivalPos="38.68" arrivalSpeed="0.00" duration="32.00" routeLength="33.58" waitingTime="24.00" waitingCount="1" stopTime="0.00" timeLoss="29.80" rerouteNo="0" devices="tripinfo_driver_0" vType="DEFAULT_VEHTYPE" speedFactor="1.01" vaporized="traci"/>
    <tripinfo id="driver_80" depart="9.00" departLane="27054209_0" departPos="5.10" departSpeed="0.00" departDelay="0.00" arrival="33.00" arrivalLane="1041357578#1_0" arrivalPos="0.46" arrivalSpeed="0.00" duration="24.00" routeLength="121.37" waitingTime="9.00" waitingCount="1" stopTime="0.00" timeLoss="17.35" rerouteNo="0" devices="tripinfo_driver_80" vType="DEFAULT_VEHTYPE" speedFactor="0.97" vaporized="traci"/>
    <tripinfo id="driver_90" depart="10.00" departLane="397146707_0" departPos="5.10" departSpeed="0.00" departDelay="0.00" arrival="33.00" arrivalLane="29023741#0_0" arrivalPos="78.81" arrivalSpeed="12.03" duration="23.00" routeLength="201.61" waitingTime="0.00" waitingCount="0" stopTime="0.00" timeLoss="4.99" rerouteNo="0" devices="tripinfo_driver_90" vType="DEFAULT_VEHTYPE" speedFactor="0.92" vaporized="traci"/>
    <tripinfo id="driver_103" depart="11.00" departLane="-91181759#0_0" departPos="5.10" departSpeed="0.00" departDelay="0.00" arrival="33.00" arrivalLane="91181759#0_0" arrivalPos="65.16" arrivalSpeed="15.05" duration="22.00" routeLength="194.97" waitingTime="0.00" waitingCount="0" stopTime="0.00" timeLoss="11.20" rerouteNo="0" devices="tripinfo_driver_103" vType="DEFAULT_VEHTYPE" speedFactor="1.03" vaporized="traci"/>
    <tripinfo id="driver_113" depart="19.00" departLane="-88572941#0_0" departPos="5.10" departSpeed="0.00" departDelay="0.00" arrival="34.00" arrivalLane="-88572941#0_0" arrivalPos="204.71" arrivalSpeed="24.12" duration="15.00" routeLength="199.61" waitingTime="0.00" waitingCount="0" stopTime="0.00" timeLoss="6.75" rerouteNo="0" devices="tripinfo_driver_113" vType="DEFAULT_VEHTYPE" speedFactor="0.99" vaporized="traci"/>
    <tripinfo id="driver_116" depart="30.00" departLane="365815995#1_0" departPos="5.10" departSpeed="0.00" departDelay="0.00" arrival="35.00" arrivalLane="365815995#1_0" arrivalPos="9.80" arrivalSpeed="0.08" duration="5.00" routeLength="4.70" waitingTime="1.00" waitingCount="1" stopTime="0.00" timeLoss="3.49" rerouteNo="0" devices="tripinfo_driver_116" vType="DEFAULT_VEHTYPE" speedFactor="1.03" vaporized="traci"/>
    <tripinfo id="driver_24" depart="3.00" departLane="-686246687#1_0" departPos="0.20" departSpeed="0.00" departDelay="0.00" arrival="36.00" arrivalLane="-225847531_0" arrivalPos="46.53" arrivalSpeed="7.60" duration="33.00" routeLength="259.05" waitingTime="0.00" waitingCount="0" stopTime="0.00" timeLoss="4.01" rerouteNo="0" devices="tripinfo_driver_24" vType="DEFAULT_VEHTYPE" speedFactor="0.92" vaporized="traci"/>
    <tripinfo id="driver_94" depart="10.00" departLane="254758125#0_0" departPos="0.36" departSpeed="0.00" departDelay="0.00" arrival="36.00" arrivalLane="254758125#1_0" arrivalPos="89.00" arrivalSpeed="0.00" duration="26.00" routeLength="89.30" waitingTime="9.00" waitingCount="1" stopTime="0.00" timeLoss="13.98" rerouteNo="0" devices="tripinfo_driver_94" vType="DEFAULT_VEHTYPE" speedFactor="0.91" vaporized="traci"/>
    <tripinfo id="driver_105" depart="11.00" departLane="254297759_0" departPos="5.10" departSpeed="0.00" departDelay="0.00" arrival="36.00" arrivalLane=":65305815_0_0" arrivalPos="5.83" arrivalSpeed="6.62" duration="25.00" routeLength="224.48" waitingTime="0.00" waitingCount="0" stopTime="0.00" timeLoss="8.28" rerouteNo="0" devices="tripinfo_driver_105" vType="DEFAULT_VEHTYPE" speedFactor="0.96" vaporized="traci"/>
    <tripinfo id="driver_9" depart="1.00" departLane="417087411#1_0" departPos="5.10" departSpeed="0.00" departDelay="0.00" arrival="37.00" arrivalLane="417087411#1_1" arrivalPos="85.86" arrivalSpeed="0.00" duration="36.00" routeLength="80.76" waitingTime="21.00" waitingCount="1" stopTime="0.00" timeLoss="26.20" rerouteNo="0" devices="tripinfo_driver_9" vType="DEFAULT_VEHTYPE" speedFactor="1.03" vaporized="traci"/>
    <tripinfo id="driver_83" depart="9.00" departLane="406581245_0" departPos="5.10" departSpeed="0.00" departDelay="0.00" arrival="37.00" arrivalLane="989334074#0_1" arrivalPos="29.68" arrivalSpeed="8.75" duration="28.00" routeLength="207.05" waitingTime="0.00" waitingCount="0" stopTime="0.00" timeLoss="3.56" rerouteNo="0" devices="tripinfo_driver_83" vType="DEFAULT_VEHTYPE" speedFactor="1.00" vaporized="traci"/>
    <tripinfo id="driver_84" depart="9.00" departLane="619979113#0_0" departPos="5.10" departSpeed="0.00" departDelay="0.00" arrival="37.00" arrivalLane="619979113#1_0" arrivalPos="5.79" arrivalSpeed="0.00" duration="28.00" routeLength="72.66" waitingTime="16.00" waitingCount="1" stopTime="0.00" timeLoss="23.86" rerouteNo="0" devices="tripinfo_driver_84" vType="DEFAULT_VEHTYPE" speedFactor="1.04" vaporized="traci"/>
    <tripinfo id="driver_76" depart="9.00" departLane="-204967524#2_0" departPos="0.20" departSpeed="0.00" departDelay="0.00" arrival="37.00" arrivalLane="-204967526#2_0" arrivalPos="2.98" arrivalSpeed="11.01" duration="28.00" routeLength="286.26" waitingTime="0.00" waitingCount="0" stopTime="0.00" timeLoss="4.13" rerouteNo="0" devices="tripinfo_driver_76" vType="DEFAULT_VEHTYPE" speedFactor="1.09" vaporized=""/>
    <tripinfo id="driver_71" depart="8.00" departLane="425516617#7_0" departPos="1.11" departSpeed="0.00" departDelay="0.00" arrival="38.00" arrivalLane="425516617#7_1" arrivalPos="1.11" arrivalSpeed="0.00" duration="30.00" routeLength="0.00" waitingTime="29.00" waitingCount="1" stopTime="0.00" timeLoss="29.00" rerouteNo="0" devices="tripinfo_driver_71" vType="DEFAULT_VEHTYPE" speedFactor="0.96" vaporized="traci"/>
    <tripinfo id="driver_104" depart="11.00" departLane="-100400946#1_0" departPos="0.20" departSpeed="0.00" departDelay="0.00" arrival="38.00" arrivalLane="674757881#1_0" arrivalPos="85.37" arrivalSpeed="0.00" duration="27.00" routeLength="108.95" waitingTime="10.00" waitingCount="1" stopTime="0.00" timeLoss="15.33" rerouteNo="0" devices="tripinfo_driver_104" vType="DEFAULT_VEHTYPE" speedFactor="1.06" vaporized="traci"/>
    <tripinfo id="driver_22" depart="3.00" departLane="620169771#2_0" departPos="0.13" departSpeed="0.00" departDelay="0.00" arrival="39.00" arrivalLane="397269728#2_0" arrivalPos="1.66" arrivalSpeed="0.00" duration="36.00" routeLength="102.51" waitingTime="20.00" waitingCount="2" stopTime="0.00" timeLoss="29.17" rerouteNo="0" devices="tripinfo_driver_22" vType="DEFAULT_VEHTYPE" speedFactor="0.83" vaporized="traci"/>
    <tripinfo id="driver_55" depart="6.00" departLane="493107463#0_0" departPos="3.54" departSpeed="0.00" departDelay="0.00" arrival="39.00" arrivalLane="493107463#1_0" arrivalPos="0.27" arrivalSpeed="0.00" duration="33.00" routeLength="0.57" waitingTime="30.00" waitingCount="1" stopTime="0.00" timeLoss="31.96" rerouteNo="0" devices="tripinfo_driver_55" vType="DEFAULT_VEHTYPE" speedFactor="1.14" vaporized="traci"/>
    <tripinfo id="driver_81" depart="9.00" departLane="502795937_0" departPos="2.58" departSpeed="0.00" departDelay="0.00" arrival="39.00" arrivalLane="713758735#2_0" arrivalPos="0.49" arrivalSpeed="0.00" duration="30.00" routeLength="231.22" waitingTime="6.00" waitingCount="1" stopTime="0.00" timeLoss="15.92" rerouteNo="0" devices="tripinfo_driver_81" vType="DEFAULT_VEHTYPE" speedFactor="1.15" vaporized="traci"/>
    <tripinfo id="driver_100" depart="11.00" departLane="1050251486#1_0" departPos="5.10" departSpeed="0.00" departDelay="0.00" arrival="39.00" arrivalLane="1030276935#1_0" arrivalPos="78.56" arrivalSpeed="0.00" duration="28.00" routeLength="169.46" waitingTime="6.00" waitingCount="1" stopTime="0.00" timeLoss="18.05" rerouteNo="0" devices="tripinfo_driver_100" vType="DEFAULT_VEHTYPE" speedFactor="0.89" vaporized="traci"/>
    <tripinfo id="driver_114" depart="20.00" departLane="8918970_0" departPos="5.10" departSpeed="0.00" departDelay="0.00" arrival="39.00" arrivalLane="935446073#1_0" arrivalPos="52.14" arrivalSpeed="14.33" duration="19.00" routeLength="122.49" waitingTime="0.00" waitingCount="0" stopTime="0.00" timeLoss="8.10" rerouteNo="0" devices="tripinfo_driver_114" vType="DEFAULT_VEHTYPE" speedFactor="1.07" vaporized="traci"/>
    <tripinfo id="driver_61" depart="7.00" departLane="224316521#1_0" departPos="5.10" departSpeed="0.00" departDelay="0.00" arrival="40.00" arrivalLane="224316521#1_3" arrivalPos="83.66" arrivalSpeed="0.00" duration="33.00" routeLength="78.56" waitingTime="21.00" waitingCount="1" stopTime="0.00" timeLoss="28.98" rerouteNo="0" devices="tripinfo_driver_61" vType="DEFAULT_VEHTYPE" speedFactor="0.94" vaporized="traci"/>
    <tripinfo id="driver_85" depart="9.00" departLane="-228201785#0_0" departPos="5.10" departSpeed="0.00" departDelay="0.00" arrival="40.00" arrivalLane="934194966#0_2" arrivalPos="34.56" arrivalSpeed="15.14" duration="31.00" routeLength="335.72" waitingTime="0.00" waitingCount="0" stopTime="0.00" timeLoss="12.46" rerouteNo="0" devices="tripinfo_driver_85" vType="DEFAULT_VEHTYPE" speedFactor="1.01" vaporized="traci"/>