<?xml version="1.0" encoding="UTF-8"?>

<!-- generated on 2022-07-27 18:24:00 by Eclipse SUMO sumo Version 1.13.0
<configuration xmlns:xsi="http://www.w3.org/2001/XMLSchema-instance" xsi:noNamespaceSchemaLocation="http://sumo.dlr.de/xsd/sumoConfiguration.xsd">

    <input>
        <net-file value="net_config/schaffhausen.net.xml"/>
        <additional-files value="net_config/add.add.xml"/>
    </input>

    <output>
        <tripinfo-output value="net_config/tripinfo.xml"/>
    </output>

    <time>
        <step-length value="1"/>
    </time>

    <processing>
        <time-to-teleport value="0"/>
    </processing>

    <report>
        <log value="/Users/davidemolinelli/Documents/phd/repositories/ride-sharing-simulator/logfile.txt"/>
    </report>

    <traci_server>
        <remote-port value="50555"/>
    </traci_server>

    <gui_only>
        <gui-settings-file value="net_config/gui-settings.cfg"/>
        <tracker-interval value="1"/>
    </gui_only>

</configuration>
-->

<tripinfos xmlns:xsi="http://www.w3.org/2001/XMLSchema-instance" xsi:noNamespaceSchemaLocation="http://sumo.dlr.de/xsd/tripinfo_file.xsd">
    <personinfo id="customer_0" depart="20.00" type="DEFAULT_PEDTYPE">
        <stop duration="1.00" arrival="21.00" arrivalPos="0.00" actType="waiting"/>
    </personinfo>
    <personinfo id="customer_2" depart="25.00" type="DEFAULT_PEDTYPE">
        <stop duration="1.00" arrival="26.00" arrivalPos="0.00" actType="waiting"/>
    </personinfo>
    <personinfo id="customer_3" depart="25.00" type="DEFAULT_PEDTYPE">
        <stop duration="1.00" arrival="26.00" arrivalPos="0.00" actType="waiting"/>
    </personinfo>
    <personinfo id="customer_4" depart="25.00" type="DEFAULT_PEDTYPE">
        <stop duration="1.00" arrival="26.00" arrivalPos="0.00" actType="waiting"/>
    </personinfo>
    <personinfo id="customer_6" depart="35.00" type="DEFAULT_PEDTYPE">
        <stop duration="1.00" arrival="36.00" arrivalPos="0.00" actType="waiting"/>
    </personinfo>
    <personinfo id="customer_7" depart="35.00" type="DEFAULT_PEDTYPE">
        <stop duration="1.00" arrival="36.00" arrivalPos="0.00" actType="waiting"/>
    </personinfo>
    <personinfo id="customer_8" depart="40.00" type="DEFAULT_PEDTYPE">
        <stop duration="1.00" arrival="41.00" arrivalPos="5.42" actType="waiting"/>
    </personinfo>
    <personinfo id="customer_12" depart="50.00" type="DEFAULT_PEDTYPE">
        <stop duration="1.00" arrival="51.00" arrivalPos="0.00" actType="waiting"/>
    </personinfo>
    <personinfo id="customer_13" depart="55.00" type="DEFAULT_PEDTYPE">
        <stop duration="1.00" arrival="56.00" arrivalPos="0.00" actType="waiting"/>
    </personinfo>
    <personinfo id="customer_20" depart="85.00" type="DEFAULT_PEDTYPE">
        <stop duration="1.00" arrival="86.00" arrivalPos="0.00" actType="waiting"/>
    </personinfo>
    <personinfo id="customer_22" depart="90.00" type="DEFAULT_PEDTYPE">
        <stop duration="1.00" arrival="91.00" arrivalPos="0.00" actType="waiting"/>
    </personinfo>
    <personinfo id="customer_26" depart="100.00" type="DEFAULT_PEDTYPE">
        <stop duration="1.00" arrival="101.00" arrivalPos="144.96" actType="waiting"/>
    </personinfo>
    <personinfo id="customer_35" depart="125.00" type="DEFAULT_PEDTYPE">
        <stop duration="1.00" arrival="126.00" arrivalPos="104.95" actType="waiting"/>
    </personinfo>
    <personinfo id="customer_30" depart="110.00" type="DEFAULT_PEDTYPE">
        <stop duration="18.00" arrival="128.00" arrivalPos="284.71" actType="waiting"/>
    </personinfo>
    <personinfo id="customer_37" depart="130.00" type="DEFAULT_PEDTYPE">
        <stop duration="1.00" arrival="131.00" arrivalPos="0.00" actType="waiting"/>
    </personinfo>
    <personinfo id="customer_40" depart="135.00" type="DEFAULT_PEDTYPE">
        <stop duration="1.00" arrival="136.00" arrivalPos="0.00" actType="waiting"/>
    </personinfo>
    <personinfo id="customer_44" depart="140.00" type="DEFAULT_PEDTYPE">
        <stop duration="1.00" arrival="141.00" arrivalPos="0.00" actType="waiting"/>
    </personinfo>
    <personinfo id="customer_39" depart="130.00" type="DEFAULT_PEDTYPE">
        <stop duration="13.00" arrival="143.00" arrivalPos="0.00" actType="waiting"/>
    </personinfo>
    <personinfo id="customer_34" depart="115.00" type="DEFAULT_PEDTYPE">
        <stop duration="39.00" arrival="154.00" arrivalPos="14.42" actType="waiting"/>
    </personinfo>
    <personinfo id="customer_25" depart="95.00" type="DEFAULT_PEDTYPE">
        <stop duration="60.00" arrival="155.00" arrivalPos="75.69" actType="waiting"/>
    </personinfo>
    <personinfo id="customer_49" depart="155.00" type="DEFAULT_PEDTYPE">
        <stop duration="1.00" arrival="156.00" arrivalPos="0.00" actType="waiting"/>
    </personinfo>
    <tripinfo id="driver_19" depart="95.00" departLane="-5082146#0_0" departPos="5.10" departSpeed="0.00" departDelay="0.00" arrival="158.00" arrivalLane=":265196598_3_0" arrivalPos="11.40" arrivalSpeed="14.24" duration="63.00" routeLength="613.13" waitingTime="0.00" waitingCount="0" stopTime="0.00" timeLoss="12.18" rerouteNo="1" devices="tripinfo_driver_19" vType="DEFAULT_VEHTYPE" speedFactor="1.04" vaporized="traci"/>
    <personinfo id="customer_51" depart="160.00" type="DEFAULT_PEDTYPE">
        <stop duration="1.00" arrival="161.00" arrivalPos="84.95" actType="waiting"/>
    </personinfo>
    <personinfo id="customer_33" depart="115.00" type="DEFAULT_PEDTYPE">
        <stop duration="47.00" arrival="162.00" arrivalPos="143.79" actType="waiting"/>
    </personinfo>
    <personinfo id="customer_52" depart="165.00" type="DEFAULT_PEDTYPE">
        <stop duration="1.00" arrival="166.00" arrivalPos="0.00" actType="waiting"/>
    </personinfo>
    <personinfo id="customer_47" depart="150.00" type="DEFAULT_PEDTYPE">
        <stop duration="19.00" arrival="169.00" arrivalPos="0.00" actType="waiting"/>
    </personinfo>
    <personinfo id="customer_57" depart="175.00" type="DEFAULT_PEDTYPE">
        <stop duration="1.00" arrival="176.00" arrivalPos="158.58" actType="waiting"/>
    </personinfo>
    <personinfo id="customer_24" depart="95.00" type="DEFAULT_PEDTYPE">
        <stop duration="81.00" arrival="176.00" arrivalPos="0.00" actType="waiting"/>
    </personinfo>
    <tripinfo id="driver_30" depart="115.00" departLane="-4813227#0_0" departPos="1.65" departSpeed="0.00" departDelay="0.00" arrival="176.00" arrivalLane="-4813233#0_0" arrivalPos="10.73" arrivalSpeed="7.17" duration="61.00" routeLength="413.95" waitingTime="0.00" waitingCount="0" stopTime="0.00" timeLoss="6.87" rerouteNo="0" devices="tripinfo_driver_30" vType="DEFAULT_VEHTYPE" speedFactor="0.94" vaporized=""/>
    <personinfo id="customer_60" depart="180.00" type="DEFAULT_PEDTYPE">
        <stop duration="1.00" arrival="181.00" arrivalPos="0.00" actType="waiting"/>
    </personinfo>
    <personinfo id="customer_61" depart="180.00" type="DEFAULT_PEDTYPE">
        <stop duration="1.00" arrival="181.00" arrivalPos="0.00" actType="waiting"/>
    </personinfo>
    <personinfo id="customer_64" depart="190.00" type="DEFAULT_PEDTYPE">
        <stop duration="1.00" arrival="191.00" arrivalPos="20.28" actType="waiting"/>
    </personinfo>
    <personinfo id="customer_36" depart="125.00" type="DEFAULT_PEDTYPE">
        <stop duration="67.00" arrival="192.00" arrivalPos="61.39" actType="waiting"/>
    </personinfo>
    <personinfo id="customer_66" depart="195.00" type="DEFAULT_PEDTYPE">
        <stop duration="1.00" arrival="196.00" arrivalPos="0.00" actType="waiting"/>
    </personinfo>
    <tripinfo id="driver_11" depart="65.00" departLane="-4994025#6_0" departPos="5.10" departSpeed="0.00" departDelay="0.00" arrival="198.00" arrivalLane="-4994023#2_0" arrivalPos="33.43" arrivalSpeed="7.39" duration="133.00" routeLength="1184.75" waitingTime="0.00" waitingCount="0" stopTime="0.00" timeLoss="19.21" rerouteNo="0" devices="tripinfo_driver_11" vType="DEFAULT_VEHTYPE" speedFactor="0.95" vaporized=""/>
    <personinfo id="customer_71" depart="200.00" type="DEFAULT_PEDTYPE">
        <stop duration="1.00" arrival="201.00" arrivalPos="34.70" actType="waiting"/>
    </personinfo>
    <personinfo id="customer_72" depart="200.00" type="DEFAULT_PEDTYPE">
        <stop duration="1.00" arrival="201.00" arrivalPos="0.00" actType="waiting"/>
    </personinfo>
    <personinfo id="customer_38" depart="130.00" type="DEFAULT_PEDTYPE">
        <stop duration="74.00" arrival="204.00" arrivalPos="0.97" actType="waiting"/>
    </personinfo>
    <personinfo id="customer_76" depart="210.00" type="DEFAULT_PEDTYPE">
        <stop duration="1.00" arrival="211.00" arrivalPos="0.00" actType="waiting"/>
    </personinfo>
    <personinfo id="customer_75" depart="210.00" type="DEFAULT_PEDTYPE">
        <stop duration="1.00" arrival="211.00" arrivalPos="0.00" actType="waiting"/>
    </personinfo>
    <personinfo id="customer_78" depart="215.00" type="DEFAULT_PEDTYPE">
        <stop duration="1.00" arrival="216.00" arrivalPos="105.95" actType="waiting"/>
    </personinfo>
    <personinfo id="customer_81" depart="225.00" type="DEFAULT_PEDTYPE">
        <stop duration="1.00" arrival="226.00" arrivalPos="0.00" actType="waiting"/>
    </personinfo>
    <personinfo id="customer_83" depart="225.00" type="DEFAULT_PEDTYPE">
        <stop duration="1.00" arrival="226.00" arrivalPos="0.00" actType="waiting"/>
    </personinfo>
    <personinfo id="customer_46" depart="145.00" type="DEFAULT_PEDTYPE">
        <stop duration="82.00" arrival="227.00" arrivalPos="27.19" actType="waiting"/>
    </personinfo>
    <personinfo id="customer_88" depart="240.00" type="DEFAULT_PEDTYPE">
        <stop duration="1.00" arrival="241.00" arrivalPos="0.00" actType="waiting"/>
    </personinfo>
    <personinfo id="customer_90" depart="245.00" type="DEFAULT_PEDTYPE">
        <stop duration="1.00" arrival="246.00" arrivalPos="0.00" actType="waiting"/>
    </personinfo>
    <tripinfo id="driver_25" depart="100.00" departLane="-4962014#1_0" departPos="5.10" departSpeed="0.00" departDelay="0.00" arrival="246.00" arrivalLane="-24996933#1_0" arrivalPos="15.03" arrivalSpeed="7.40" duration="146.00" routeLength="1526.61" waitingTime="0.00" waitingCount="0" stopTime="2.00" timeLoss="22.20" rerouteNo="1" devices="tripinfo_driver_25 person_driver_25" vType="DEFAULT_VEHTYPE" speedFactor="1.02" vaporized=""/>
    <personinfo id="customer_29" depart="105.00" type="DEFAULT_PEDTYPE">
        <stop duration="135.00" arrival="240.00" arrivalPos="0.00" actType="waiting"/>
        <ride waitingTime="3.00" vehicle="driver_25" depart="243.00" arrival="246.00" arrivalPos="15.03" duration="3.00" routeLength="14.90" timeLoss="1.87"/>
        <stop duration="1.00" arrival="247.00" arrivalPos="104.87" actType="waiting"/>
    </personinfo>
    <tripinfo id="driver_24" depart="100.00" departLane="-46494131#2_0" departPos="5.10" departSpeed="0.00" departDelay="0.00" arrival="252.00" arrivalLane="-202630162_0" arrivalPos="34.27" arrivalSpeed="12.63" duration="152.00" routeLength="1902.68" waitingTime="0.00" waitingCount="0" stopTime="0.00" timeLoss="24.57" rerouteNo="0" devices="tripinfo_driver_24" vType="DEFAULT_VEHTYPE" speedFactor="1.17" vaporized=""/>
    <tripinfo id="driver_37" depart="140.00" departLane="-952236844#0_0" departPos="5.10" departSpeed="0.00" departDelay="0.00" arrival="253.00" arrivalLane="-1050769396_0" arrivalPos="106.09" arrivalSpeed="7.44" duration="113.00" routeLength="1165.61" waitingTime="0.00" waitingCount="0" stopTime="2.00" timeLoss="15.07" rerouteNo="1" devices="tripinfo_driver_37 person_driver_37" vType="DEFAULT_VEHTYPE" speedFactor="1.02" vaporized=""/>
    <personinfo id="customer_43" depart="140.00" type="DEFAULT_PEDTYPE">
        <stop duration="96.00" arrival="236.00" arrivalPos="0.00" actType="waiting"/>
        <ride waitingTime="3.00" vehicle="driver_37" depart="239.00" arrival="253.00" arrivalPos="106.09" duration="14.00" routeLength="105.95" timeLoss="2.50"/>
        <stop duration="1.00" arrival="254.00" arrivalPos="367.39" actType="waiting"/>
    </personinfo>
    <tripinfo id="driver_63" depart="195.00" departLane="4813304#1_0" departPos="5.10" departSpeed="0.00" departDelay="0.00" arrival="256.00" arrivalLane="-1050769402_0" arrivalPos="16.05" arrivalSpeed="13.39" duration="61.00" routeLength="664.41" waitingTime="0.00" waitingCount="0" stopTime="0.00" timeLoss="11.83" rerouteNo="0" devices="tripinfo_driver_63" vType="DEFAULT_VEHTYPE" speedFactor="1.01" vaporized=""/>
    <personinfo id="customer_101" depart="265.00" type="DEFAULT_PEDTYPE">
        <stop duration="1.00" arrival="266.00" arrivalPos="1614.44" actType="waiting"/>
    </personinfo>
    <personinfo id="customer_103" depart="265.00" type="DEFAULT_PEDTYPE">
        <stop duration="1.00" arrival="266.00" arrivalPos="34.32" actType="waiting"/>
    </personinfo>
    <personinfo id="customer_105" depart="270.00" type="DEFAULT_PEDTYPE">
        <stop duration="2.00" arrival="272.00" arrivalPos="0.00" actType="waiting"/>
    </personinfo>
    <tripinfo id="driver_16" depart="85.00" departLane="-519181687#1_0" departPos="5.10" departSpeed="0.00" departDelay="0.00" arrival="274.00" arrivalLane="-4984199#0_0" arrivalPos="13.66" arrivalSpeed="8.95" duration="189.00" routeLength="2107.79" waitingTime="0.00" waitingCount="0" stopTime="0.00" timeLoss="20.54" rerouteNo="0" devices="tripinfo_driver_16" vType="DEFAULT_VEHTYPE" speedFactor="1.10" vaporized=""/>
    <personinfo id="customer_110" depart="275.00" type="DEFAULT_PEDTYPE">
        <stop duration="1.00" arrival="276.00" arrivalPos="0.00" actType="waiting"/>
    </personinfo>
    <personinfo id="customer_109" depart="275.00" type="DEFAULT_PEDTYPE">
        <stop duration="1.00" arrival="276.00" arrivalPos="649.94" actType="waiting"/>
    </personinfo>
    <tripinfo id="driver_43" depart="160.00" departLane="-4587917#4_0" departPos="5.10" departSpeed="0.00" departDelay="0.00" arrival="282.00" arrivalLane="4690602#6_0" arrivalPos="26.96" arrivalSpeed="8.98" duration="122.00" routeLength="1229.81" waitingTime="0.00" waitingCount="0" stopTime="0.00" timeLoss="16.88" rerouteNo="0" devices="tripinfo_driver_43" vType="DEFAULT_VEHTYPE" speedFactor="1.09" vaporized=""/>
    <tripinfo id="driver_67" depart="210.00" departLane="-203388457_0" departPos="5.10" departSpeed="0.00" departDelay="0.00" arrival="282.00" arrivalLane="-4728953#2_0" arrivalPos="35.65" arrivalSpeed="6.64" duration="72.00" routeLength="569.21" waitingTime="0.00" waitingCount="0" stopTime="0.00" timeLoss="11.42" rerouteNo="0" devices="tripinfo_driver_67" vType="DEFAULT_VEHTYPE" speedFactor="0.94" vaporized=""/>
    <tripinfo id="driver_51" depart="170.00" departLane="315560700_0" departPos="0.20" departSpeed="0.00" departDelay="0.00" arrival="291.00" arrivalLane="-190250187#2_0" arrivalPos="14.68" arrivalSpeed="8.70" duration="121.00" routeLength="671.25" waitingTime="39.00" waitingCount="2" stopTime="0.00" timeLoss="64.83" rerouteNo="0" devices="tripinfo_driver_51" vType="DEFAULT_VEHTYPE" speedFactor="1.07" vaporized=""/>
    <personinfo id="customer_10" depart="45.00" type="DEFAULT_PEDTYPE">
        <stop duration="40.00" arrival="85.00" arrivalPos="169.86" actType="waiting"/>
        <ride waitingTime="2.00" vehicle="driver_2" depart="87.00" arrival="286.00" arrivalPos="662.31" duration="199.00" routeLength="3400.29" timeLoss="19.67"/>
        <stop duration="5.00" arrival="291.00" arrivalPos="662.31" actType="waiting"/>
    </personinfo>
    <personinfo id="customer_121" depart="305.00" type="DEFAULT_PEDTYPE">
        <stop duration="1.00" arrival="306.00" arrivalPos="0.00" actType="waiting"/>
    </personinfo>
    <tripinfo id="driver_80" depart="235.00" departLane="-24524219#1_0" departPos="5.10" departSpeed="0.00" departDelay="0.00" arrival="307.00" arrivalLane="-4587959#5_0" arrivalPos="144.22" arrivalSpeed="13.87" duration="72.00" routeLength="746.10" waitingTime="0.00" waitingCount="0" stopTime="2.00" timeLoss="14.60" rerouteNo="1" devices="tripinfo_driver_80 person_driver_80" vType="DEFAULT_VEHTYPE" speedFactor="1.00" vaporized=""/>
    <personinfo id="customer_97" depart="255.00" type="DEFAULT_PEDTYPE">
        <stop duration="35.00" arrival="290.00" arrivalPos="0.00" actType="waiting"/>
        <ride waitingTime="3.00" vehicle="driver_80" depart="293.00" arrival="307.00" arrivalPos="144.22" duration="14.00" routeLength="144.10" timeLoss="3.97"/>
        <stop duration="1.00" arrival="308.00" arrivalPos="217.39" actType="waiting"/>
    </personinfo>
    <tripinfo id="driver_65" depart="200.00" departLane="-4587916#7_0" departPos="3.92" departSpeed="0.00" departDelay="0.00" arrival="308.00" arrivalLane="-297347985#1_0" arrivalPos="95.58" arrivalSpeed="16.85" duration="108.00" routeLength="1369.54" waitingTime="2.00" waitingCount="1" stopTime="2.00" timeLoss="22.10" rerouteNo="1" devices="tripinfo_driver_65 person_driver_65" vType="DEFAULT_VEHTYPE" speedFactor="1.23" vaporized=""/>
    <personinfo id="customer_107" depart="270.00" type="DEFAULT_PEDTYPE">
        <stop duration="27.00" arrival="297.00" arrivalPos="0.00" actType="waiting"/>
        <ride waitingTime="3.00" vehicle="driver_65" depart="300.00" arrival="308.00" arrivalPos="95.58" duration="8.00" routeLength="95.40" timeLoss="3.32"/>
        <stop duration="1.00" arrival="309.00" arrivalPos="153.98" actType="waiting"/>
    </personinfo>
    <personinfo id="customer_27" depart="105.00" type="DEFAULT_PEDTYPE">
        <stop duration="102.00" arrival="207.00" arrivalPos="35.36" actType="waiting"/>
        <ride waitingTime="2.00" vehicle="driver_26" depart="209.00" arrival="305.00" arrivalPos="183.65" duration="96.00" routeLength="1053.82" timeLoss="17.79"/>
        <stop duration="5.00" arrival="310.00" arrivalPos="183.68" actType="waiting"/>
    </personinfo>
    <personinfo id="customer_126" depart="310.00" type="DEFAULT_PEDTYPE">
        <stop duration="1.00" arrival="311.00" arrivalPos="125.43" actType="waiting"/>
    </personinfo>
    <personinfo id="customer_123" depart="310.00" type="DEFAULT_PEDTYPE">
        <stop duration="1.00" arrival="311.00" arrivalPos="91.23" actType="waiting"/>
    </personinfo>
    <personinfo id="customer_124" depart="310.00" type="DEFAULT_PEDTYPE">
        <stop duration="1.00" arrival="311.00" arrivalPos="23.39" actType="waiting"/>
    </personinfo>
    <personinfo id="customer_67" depart="195.00" type="DEFAULT_PEDTYPE">
        <stop duration="59.00" arrival="254.00" arrivalPos="122.97" actType="waiting"/>
        <ride waitingTime="3.00" vehicle="driver_61" depart="257.00" arrival="306.00" arrivalPos="1294.54" duration="49.00" routeLength="1171.58" timeLoss="12.42"/>
        <stop duration="5.00" arrival="311.00" arrivalPos="1294.56" actType="waiting"/>
    </personinfo>
    <personinfo id="customer_132" depart="315.00" type="DEFAULT_PEDTYPE">
        <stop duration="1.00" arrival="316.00" arrivalPos="233.49" actType="waiting"/>
    </personinfo>
    <tripinfo id="driver_109" depart="285.00" departLane="-25813984#3_0" departPos="5.10" departSpeed="0.00" departDelay="0.00" arrival="319.00" arrivalLane=":281561169_7_0" arrivalPos="8.26" arrivalSpeed="13.92" duration="34.00" routeLength="418.98" waitingTime="0.00" waitingCount="0" stopTime="0.00" timeLoss="4.61" rerouteNo="0" devices="tripinfo_driver_109" vType="DEFAULT_VEHTYPE" speedFactor="1.06" vaporized="traci"/>
    <tripinfo id="driver_33" depart="120.00" departLane="-26128941#1_0" departPos="5.10" departSpeed="0.00" departDelay="0.00" arrival="320.00" arrivalLane="-4623019#0_0" arrivalPos="114.81" arrivalSpeed="16.46" duration="200.00" routeLength="3124.44" waitingTime="0.00" waitingCount="0" stopTime="0.00" timeLoss="21.03" rerouteNo="1" devices="tripinfo_driver_33" vType="DEFAULT_VEHTYPE" speedFactor="1.04" vaporized="traci"/>
    <personinfo id="customer_133" depart="320.00" type="DEFAULT_PEDTYPE">
        <stop duration="1.00" arrival="321.00" arrivalPos="98.78" actType="waiting"/>
    </personinfo>
    <personinfo id="customer_134" depart="320.00" type="DEFAULT_PEDTYPE">
        <stop duration="1.00" arrival="321.00" arrivalPos="0.00" actType="waiting"/>
    </personinfo>
    <tripinfo id="driver_44" depart="160.00" departLane="226217955#6_0" departPos="5.10" departSpeed="0.00" departDelay="0.00" arrival="325.00" arrivalLane="-25902701#4_0" arrivalPos="198.62" arrivalSpeed="5.07" duration="165.00" routeLength="1465.44" waitingTime="0.00" waitingCount="0" stopTime="0.00" timeLoss="25.51" rerouteNo="0" devices="tripinfo_driver_44" vType="DEFAULT_VEHTYPE" speedFactor="1.06" vaporized=""/>
    <personinfo id="customer_135" depart="325.00" type="DEFAULT_PEDTYPE">
        <stop duration="1.00" arrival="326.00" arrivalPos="1946.11" actType="waiting"/>
    </personinfo>
    <tripinfo id="driver_103" depart="275.00" departLane="25647617_0" departPos="5.10" departSpeed="0.00" departDelay="0.00" arrival="329.00" arrivalLane="235199985#1_0" arrivalPos="64.37" arrivalSpeed="14.87" duration="54.00" routeLength="550.94" waitingTime="0.00" waitingCount="0" stopTime="0.00" timeLoss="15.99" rerouteNo="0" devices="tripinfo_driver_103" vType="DEFAULT_VEHTYPE" speedFactor="1.10" vaporized=""/>
    <personinfo id="customer_142" depart="335.00" type="DEFAULT_PEDTYPE">
        <stop duration="1.00" arrival="336.00" arrivalPos="202.23" actType="waiting"/>
    </personinfo>
    <tripinfo id="driver_8" depart="60.00" departLane="-4753139#1_0" departPos="0.20" departSpeed="0.00" departDelay="0.00" arrival="337.00" arrivalLane="-4983943#4_0" arrivalPos="2.24" arrivalSpeed="4.69" duration="277.00" routeLength="2247.87" waitingTime="25.00" waitingCount="1" stopTime="0.00" timeLoss="54.19" rerouteNo="0" devices="tripinfo_driver_8" vType="DEFAULT_VEHTYPE" speedFactor="0.89" vaporized=""/>
    <tripinfo id="driver_42" depart="155.00" departLane="-25648234#3_0" departPos="3.02" departSpeed="0.00" departDelay="0.00" arrival="341.00" arrivalLane="-202517446#0_0" arrivalPos="34.30" arrivalSpeed="11.31" duration="186.00" routeLength="1544.38" waitingTime="1.00" waitingCount="1" stopTime="2.00" timeLoss="35.27" rerouteNo="1" devices="tripinfo_driver_42 person_driver_42" vType="DEFAULT_VEHTYPE" speedFactor="0.89" vaporized=""/>
    <personinfo id="customer_59" depart="175.00" type="DEFAULT_PEDTYPE">
        <stop duration="157.00" arrival="332.00" arrivalPos="0.00" actType="waiting"/>
        <ride waitingTime="4.00" vehicle="driver_42" depart="336.00" arrival="341.00" arrivalPos="34.30" duration="5.00" routeLength="34.12" timeLoss="2.81"/>
        <stop duration="1.00" arrival="342.00" arrivalPos="74.81" actType="waiting"/>
    </personinfo>
    <personinfo id="customer_149" depart="345.00" type="DEFAULT_PEDTYPE">
        <stop duration="1.00" arrival="346.00" arrivalPos="0.00" actType="waiting"/>
    </personinfo>
    <personinfo id="customer_150" depart="345.00" type="DEFAULT_PEDTYPE">
        <stop duration="1.00" arrival="346.00" arrivalPos="454.61" actType="waiting"/>
    </personinfo>
    <tripinfo id="driver_52" depart="170.00" departLane="-4691151#1_0" departPos="5.10" departSpeed="0.00" departDelay="0.00" arrival="347.00" arrivalLane="24524362#0_0" arrivalPos="5.82" arrivalSpeed="4.89" duration="177.00" routeLength="1731.43" waitingTime="0.00" waitingCount="0" stopTime="0.00" timeLoss="19.11" rerouteNo="0" devices="tripinfo_driver_52" vType="DEFAULT_VEHTYPE" speedFactor="1.03" vaporized=""/>
    <personinfo id="customer_155" depart="350.00" type="DEFAULT_PEDTYPE">
        <stop duration="1.00" arrival="351.00" arrivalPos="41.97" actType="waiting"/>
    </personinfo>
    <personinfo id="customer_156" depart="350.00" type="DEFAULT_PEDTYPE">
        <stop duration="1.00" arrival="351.00" arrivalPos="0.00" actType="waiting"/>
    </personinfo>
    <personinfo id="customer_80" depart="220.00" type="DEFAULT_PEDTYPE">
        <stop duration="135.00" arrival="355.00" arrivalPos="578.87" actType="waiting"/>
    </personinfo>
    <tripinfo id="driver_17" depart="90.00" departLane="25200775_0" departPos="5.10" departSpeed="0.00" departDelay="0.00" arrival="356.00" arrivalLane="-4728953#2_0" arrivalPos="35.65" arrivalSpeed="7.22" duration="266.00" routeLength="2307.03" waitingTime="0.00" waitingCount="0" stopTime="0.00" timeLoss="25.56" rerouteNo="0" devices="tripinfo_driver_17" vType="DEFAULT_VEHTYPE" speedFactor="0.90" vaporized=""/>
    <tripinfo id="driver_70" depart="210.00" departLane="-4580434#4_0" departPos="5.10" departSpeed="0.00" departDelay="0.00" arrival="356.00" arrivalLane="-4945440#2_0" arrivalPos="44.65" arrivalSpeed="7.26" duration="146.00" routeLength="1304.74" waitingTime="0.00" waitingCount="0" stopTime="0.00" timeLoss="21.93" rerouteNo="0" devices="tripinfo_driver_70" vType="DEFAULT_VEHTYPE" speedFactor="1.00" vaporized=""/>
    <tripinfo id="driver_144" depart="345.00" departLane="-4813301#0_0" departPos="5.10" departSpeed="0.00" departDelay="0.00" arrival="360.00" arrivalLane=":275030804_4_0" arrivalPos="12.64" arrivalSpeed="7.48" duration="15.00" routeLength="73.76" waitingTime="0.00" waitingCount="0" stopTime="0.00" timeLoss="3.87" rerouteNo="0" devices="tripinfo_driver_144" vType="DEFAULT_VEHTYPE" speedFactor="0.97" vaporized="traci"/>
    <tripinfo id="driver_41" depart="155.00" departLane="-26128941#6_0" departPos="5.10" departSpeed="0.00" departDelay="0.00" arrival="360.00" arrivalLane="-4962014#1_0" arrivalPos="91.04" arrivalSpeed="7.85" duration="205.00" routeLength="3294.08" waitingTime="0.00" waitingCount="0" stopTime="2.00" timeLoss="21.06" rerouteNo="1" devices="tripinfo_driver_41 person_driver_41" vType="DEFAULT_VEHTYPE" speedFactor="1.02" vaporized=""/>
    <personinfo id="customer_55" depart="170.00" type="DEFAULT_PEDTYPE">
        <stop duration="174.00" arrival="344.00" arrivalPos="0.00" actType="waiting"/>
        <ride waitingTime="3.00" vehicle="driver_41" depart="347.00" arrival="360.00" arrivalPos="91.04" duration="13.00" routeLength="90.85" timeLoss="2.55"/>
        <stop duration="1.00" arrival="361.00" arrivalPos="0.34" actType="waiting"/>
    </personinfo>
    <personinfo id="customer_163" depart="360.00" type="DEFAULT_PEDTYPE">
        <stop duration="1.00" arrival="361.00" arrivalPos="3.90" actType="waiting"/>
    </personinfo>
    <personinfo id="customer_91" depart="245.00" type="DEFAULT_PEDTYPE">
        <stop duration="117.00" arrival="362.00" arrivalPos="134.72" actType="waiting"/>
    </personinfo>
    <personinfo id="customer_169" depart="370.00" type="DEFAULT_PEDTYPE">
        <stop duration="1.00" arrival="371.00" arrivalPos="1990.40" actType="waiting"/>
    </personinfo>
    <personinfo id="customer_167" depart="370.00" type="DEFAULT_PEDTYPE">
        <stop duration="1.00" arrival="371.00" arrivalPos="468.45" actType="waiting"/>
    </personinfo>
    <personinfo id="customer_170" depart="370.00" type="DEFAULT_PEDTYPE">
        <stop duration="1.00" arrival="371.00" arrivalPos="0.00" actType="waiting"/>
    </personinfo>
    <personinfo id="customer_62" depart="185.00" type="DEFAULT_PEDTYPE">
        <stop duration="79.00" arrival="264.00" arrivalPos="0.00" actType="waiting"/>
        <ride waitingTime="2.00" vehicle="driver_39" depart="266.00" arrival="369.00" arrivalPos="204.88" duration="103.00" routeLength="1227.30" timeLoss="16.60"/>
        <stop duration="5.00" arrival="374.00" arrivalPos="204.88" actType="waiting"/>
    </personinfo>
    <personinfo id="customer_173" depart="375.00" type="DEFAULT_PEDTYPE">
        <stop duration="1.00" arrival="376.00" arrivalPos="0.00" actType="waiting"/>
    </personinfo>
    <tripinfo id="driver_36" depart="135.00" departLane="-25012468#0_0" departPos="5.10" departSpeed="0.00" departDelay="0.00" arrival="378.00" arrivalLane="-25901718#0_0" arrivalPos="13.93" arrivalSpeed="13.77" duration="243.00" routeLength="2647.09" waitingTime="0.00" waitingCount="0" stopTime="0.00" timeLoss="31.47" rerouteNo="0" devices="tripinfo_driver_36" vType="DEFAULT_VEHTYPE" speedFactor="1.01" vaporized=""/>
    <personinfo id="customer_82" depart="225.00" type="DEFAULT_PEDTYPE">
        <stop duration="154.00" arrival="379.00" arrivalPos="0.00" actType="waiting"/>
    </personinfo>
    <personinfo id="customer_48" depart="150.00" type="DEFAULT_PEDTYPE">
        <stop duration="77.00" arrival="227.00" arrivalPos="0.00" actType="waiting"/>
        <ride waitingTime="4.00" vehicle="driver_28" depart="231.00" arrival="374.00" arrivalPos="0.20" duration="143.00" routeLength="1692.50" timeLoss="26.80"/>
        <stop duration="5.00" arrival="379.00" arrivalPos="0.20" actType="waiting"/>
    </personinfo>
    <tripinfo id="driver_23" depart="100.00" departLane="-25814420#1_0" departPos="5.10" departSpeed="0.00" departDelay="0.00" arrival="383.00" arrivalLane=":29865007_0_0" arrivalPos="3.21" arrivalSpeed="11.62" duration="283.00" routeLength="2782.93" waitingTime="3.00" waitingCount="1" stopTime="0.00" timeLoss="35.12" rerouteNo="0" devices="tripinfo_driver_23" vType="DEFAULT_VEHTYPE" speedFactor="0.85" vaporized="traci"/>
    <tripinfo id="driver_75" depart="225.00" departLane="1000333566_0" departPos="5.10" departSpeed="0.00" departDelay="0.00" arrival="386.00" arrivalLane="26011264#1_0" arrivalPos="42.16" arrivalSpeed="14.96" duration="161.00" routeLength="1952.51" waitingTime="0.00" waitingCount="0" stopTime="0.00" timeLoss="24.37" rerouteNo="0" devices="tripinfo_driver_75" vType="DEFAULT_VEHTYPE" speedFactor="1.08" vaporized=""/>
    <tripinfo id="driver_112" depart="290.00" departLane="-279398447#0_0" departPos="5.10" departSpeed="0.00" departDelay="0.00" arrival="388.00" arrivalLane="-24996793_0" arrivalPos="72.42" arrivalSpeed="14.50" duration="98.00" routeLength="1174.38" waitingTime="0.00" waitingCount="0" stopTime="0.00" timeLoss="14.16" rerouteNo="0" devices="tripinfo_driver_112" vType="DEFAULT_VEHTYPE" speedFactor="1.11" vaporized=""/>
    <personinfo id="customer_177" depart="390.00" type="DEFAULT_PEDTYPE">