<?xml version="1.0" encoding="UTF-8"?>

<!-- generated on 2022-08-27 07:51:30 by Eclipse SUMO sumo Version 1.14.1
<configuration xmlns:xsi="http://www.w3.org/2001/XMLSchema-instance" xsi:noNamespaceSchemaLocation="http://sumo.dlr.de/xsd/sumoConfiguration.xsd">

    <input>
        <net-file value="net_config/san-francisco.net.xml"/>
        <additional-files value="net_config/add.add.xml"/>
    </input>

    <output>
        <tripinfo-output value="net_config/tripinfo.xml"/>
    </output>

    <time>
        <step-length value="1"/>
    </time>

    <processing>
        <time-to-teleport value="0"/>
    </processing>

    <traci_server>
        <remote-port value="50064"/>
    </traci_server>

    <gui_only>
        <gui-settings-file value="net_config/gui-settings.cfg"/>
    </gui_only>

</configuration>
-->

<tripinfos xmlns:xsi="http://www.w3.org/2001/XMLSchema-instance" xsi:noNamespaceSchemaLocation="http://sumo.dlr.de/xsd/tripinfo_file.xsd">
    <tripinfo id="driver_62" depart="7.00" departLane="408572569_0" departPos="5.10" departSpeed="0.00" departDelay="1.00" arrival="8.00" arrivalLane="408572569_0" arrivalPos="5.10" arrivalSpeed="0.00" duration="1.00" routeLength="0.00" waitingTime="0.00" waitingCount="0" stopTime="0.00" timeLoss="0.00" rerouteNo="0" devices="tripinfo_driver_62" vType="DEFAULT_VEHTYPE" speedFactor="0.94" vaporized="traci"/>
    <tripinfo id="driver_13" depart="2.00" departLane="27166444#0_0" departPos="5.10" departSpeed="0.00" departDelay="0.00" arrival="9.00" arrivalLane="27166444#0_2" arrivalPos="43.68" arrivalSpeed="10.79" duration="7.00" routeLength="38.58" waitingTime="0.00" waitingCount="0" stopTime="0.00" timeLoss="4.50" rerouteNo="0" devices="tripinfo_driver_13" vType="DEFAULT_VEHTYPE" speedFactor="0.93" vaporized="traci"/>
    <tripinfo id="driver_28" depart="3.00" departLane="-30832504_0" departPos="5.10" departSpeed="0.00" departDelay="0.00" arrival="9.00" arrivalLane="1035093272_1" arrivalPos="1.45" arrivalSpeed="6.83" duration="6.00" routeLength="23.12" waitingTime="0.00" waitingCount="0" stopTime="0.00" timeLoss="3.14" rerouteNo="0" devices="tripinfo_driver_28" vType="DEFAULT_VEHTYPE" speedFactor="1.18" vaporized="traci"/>
    <tripinfo id="driver_41" depart="4.00" departLane="277480563_0" departPos="5.10" departSpeed="0.00" departDelay="0.00" arrival="10.00" arrivalLane="277480563_0" arrivalPos="32.81" arrivalSpeed="9.19" duration="6.00" routeLength="27.71" waitingTime="0.00" waitingCount="0" stopTime="0.00" timeLoss="2.01" rerouteNo="0" devices="tripinfo_driver_41" vType="DEFAULT_VEHTYPE" speedFactor="1.04" vaporized="traci"/>
    <tripinfo id="driver_42" depart="5.00" departLane="-27570798_0" departPos="0.34" departSpeed="0.00" departDelay="0.00" arrival="10.00" arrivalLane="-27570798_0" arrivalPos="0.34" arrivalSpeed="0.00" duration="5.00" routeLength="0.00" waitingTime="4.00" waitingCount="1" stopTime="0.00" timeLoss="4.00" rerouteNo="0" devices="tripinfo_driver_42" vType="DEFAULT_VEHTYPE" speedFactor="1.04" vaporized="traci"/>
    <tripinfo id="driver_66" depart="7.00" departLane="-500871824#0_0" departPos="5.10" departSpeed="0.00" departDelay="0.00" arrival="11.00" arrivalLane="-500871824#0_0" arrivalPos="15.78" arrivalSpeed="4.93" duration="4.00" routeLength="10.68" waitingTime="0.00" waitingCount="0" stopTime="0.00" timeLoss="2.25" rerouteNo="0" devices="tripinfo_driver_66" vType="DEFAULT_VEHTYPE" speedFactor="1.02" vaporized="traci"/>
    <tripinfo id="driver_8" depart="2.00" departLane="-706550133#0_0" departPos="5.10" departSpeed="0.00" departDelay="0.00" arrival="12.00" arrivalLane="-254299113#7_0" arrivalPos="50.12" arrivalSpeed="11.76" duration="10.00" routeLength="75.63" waitingTime="0.00" waitingCount="0" stopTime="0.00" timeLoss="2.80" rerouteNo="0" devices="tripinfo_driver_8" vType="DEFAULT_VEHTYPE" speedFactor="1.09" vaporized="traci"/>
    <tripinfo id="driver_107" depart="12.00" departLane="-28841115#5_0" departPos="4.53" departSpeed="0.00" departDelay="1.00" arrival="13.00" arrivalLane="-28841115#5_0" arrivalPos="4.53" arrivalSpeed="0.00" duration="1.00" routeLength="0.00" waitingTime="0.00" waitingCount="0" stopTime="0.00" timeLoss="0.00" rerouteNo="0" devices="tripinfo_driver_107" vType="DEFAULT_VEHTYPE" speedFactor="0.87" vaporized="traci"/>
    <tripinfo id="driver_18" depart="2.00" departLane="-133781759_0" departPos="5.10" departSpeed="0.00" departDelay="0.00" arrival="13.00" arrivalLane="-397144576#1_0" arrivalPos="7.69" arrivalSpeed="8.27" duration="11.00" routeLength="67.10" waitingTime="0.00" waitingCount="0" stopTime="0.00" timeLoss="2.63" rerouteNo="0" devices="tripinfo_driver_18" vType="DEFAULT_VEHTYPE" speedFactor="1.02" vaporized="traci"/>
    <tripinfo id="driver_64" depart="6.00" departLane="-619979101_0" departPos="5.10" departSpeed="0.00" departDelay="0.00" arrival="13.00" arrivalLane="-619979101_0" arrivalPos="50.52" arrivalSpeed="12.58" duration="7.00" routeLength="45.42" waitingTime="0.00" waitingCount="0" stopTime="0.00" timeLoss="3.75" rerouteNo="0" devices="tripinfo_driver_64" vType="DEFAULT_VEHTYPE" speedFactor="0.91" vaporized="traci"/>
    <tripinfo id="driver_75" depart="7.00" departLane="1032777734_0" departPos="5.10" departSpeed="0.00" departDelay="0.00" arrival="14.00" arrivalLane="1032777734_0" arrivalPos="42.86" arrivalSpeed="8.87" duration="7.00" routeLength="37.76" waitingTime="0.00" waitingCount="0" stopTime="0.00" timeLoss="1.81" rerouteNo="0" devices="tripinfo_driver_75" vType="DEFAULT_VEHTYPE" speedFactor="1.01" vaporized="traci"/>
    <tripinfo id="driver_17" depart="2.00" departLane="254758131#2_0" departPos="5.10" departSpeed="0.00" departDelay="0.00" arrival="15.00" arrivalLane="254758131#2_0" arrivalPos="104.65" arrivalSpeed="9.16" duration="13.00" routeLength="99.55" waitingTime="0.00" waitingCount="0" stopTime="0.00" timeLoss="2.39" rerouteNo="0" devices="tripinfo_driver_17" vType="DEFAULT_VEHTYPE" speedFactor="1.16" vaporized="traci"/>
    <tripinfo id="driver_26" depart="3.00" departLane="133733593#0_0" departPos="0.20" departSpeed="0.00" departDelay="0.00" arrival="15.00" arrivalLane="133733593#1_0" arrivalPos="125.53" arrivalSpeed="13.10" duration="12.00" routeLength="125.88" waitingTime="0.00" waitingCount="0" stopTime="0.00" timeLoss="6.00" rerouteNo="0" devices="tripinfo_driver_26" vType="DEFAULT_VEHTYPE" speedFactor="1.13" vaporized="traci"/>
    <tripinfo id="driver_39" depart="4.00" departLane="254297759_0" departPos="5.10" departSpeed="0.00" departDelay="0.00" arrival="15.00" arrivalLane=":65319923_0_0" arrivalPos="4.12" arrivalSpeed="5.90" duration="11.00" routeLength="84.58" waitingTime="0.00" waitingCount="0" stopTime="0.00" timeLoss="6.20" rerouteNo="0" devices="tripinfo_driver_39" vType="DEFAULT_VEHTYPE" speedFactor="0.96" vaporized="traci"/>
    <tripinfo id="driver_99" depart="10.00" departLane="-225847532_0" departPos="5.10" departSpeed="0.00" departDelay="0.00" arrival="15.00" arrivalLane="-225847532_0" arrivalPos="23.74" arrivalSpeed="7.66" duration="5.00" routeLength="18.64" waitingTime="0.00" waitingCount="0" stopTime="0.00" timeLoss="1.85" rerouteNo="0" devices="tripinfo_driver_99" vType="DEFAULT_VEHTYPE" speedFactor="0.97" vaporized="traci"/>
    <tripinfo id="driver_22" depart="3.00" departLane="-87376691#3_0" departPos="5.10" departSpeed="0.00" departDelay="0.00" arrival="17.00" arrivalLane="87376691#3_0" arrivalPos="0.66" arrivalSpeed="2.69" duration="14.00" routeLength="89.80" waitingTime="0.00" waitingCount="0" stopTime="0.00" timeLoss="4.51" rerouteNo="0" devices="tripinfo_driver_22" vType="DEFAULT_VEHTYPE" speedFactor="0.83" vaporized="traci"/>
    <tripinfo id="driver_25" depart="3.00" departLane="674757879#2_0" departPos="1.04" departSpeed="0.00" departDelay="0.00" arrival="17.00" arrivalLane=":65303546_0_2" arrivalPos="6.42" arrivalSpeed="11.91" duration="14.00" routeLength="148.12" waitingTime="0.00" waitingCount="0" stopTime="0.00" timeLoss="4.86" rerouteNo="1" devices="tripinfo_driver_25" vType="DEFAULT_VEHTYPE" speedFactor="0.95" vaporized="traci"/>
    <tripinfo id="driver_43" depart="5.00" departLane="27054196#1_0" departPos="5.10" departSpeed="0.00" departDelay="0.00" arrival="18.00" arrivalLane=":65374771_0_0" arrivalPos="6.03" arrivalSpeed="6.57" duration="13.00" routeLength="124.42" waitingTime="0.00" waitingCount="0" stopTime="0.00" timeLoss="6.24" rerouteNo="0" devices="tripinfo_driver_43" vType="DEFAULT_VEHTYPE" speedFactor="1.09" vaporized="traci"/>
    <tripinfo id="driver_65" depart="7.00" departLane="968937455_0" departPos="5.10" departSpeed="0.00" departDelay="0.00" arrival="18.00" arrivalLane="968937455_2" arrivalPos="68.59" arrivalSpeed="7.33" duration="11.00" routeLength="63.49" waitingTime="0.00" waitingCount="0" stopTime="0.00" timeLoss="2.24" rerouteNo="0" devices="tripinfo_driver_65" vType="DEFAULT_VEHTYPE" speedFactor="0.91" vaporized="traci"/>
    <tripinfo id="driver_84" depart="8.00" departLane="254297759_0" departPos="5.10" departSpeed="0.00" departDelay="0.00" arrival="18.00" arrivalLane="254297759_0" arrivalPos="80.57" arrivalSpeed="10.93" duration="10.00" routeLength="75.47" waitingTime="0.00" waitingCount="0" stopTime="0.00" timeLoss="6.40" rerouteNo="0" devices="tripinfo_driver_84" vType="DEFAULT_VEHTYPE" speedFactor="1.04" vaporized="traci"/>
    <tripinfo id="driver_91" depart="9.00" departLane="527857404#0_0" departPos="0.15" departSpeed="0.00" departDelay="0.00" arrival="18.00" arrivalLane="527857404#1_0" arrivalPos="65.83" arrivalSpeed="10.95" duration="9.00" routeLength="66.25" waitingTime="0.00" waitingCount="0" stopTime="0.00" timeLoss="2.57" rerouteNo="0" devices="tripinfo_driver_91" vType="DEFAULT_VEHTYPE" speedFactor="1.09" vaporized="traci"/>
    <tripinfo id="driver_19" depart="3.00" departLane="28805059#2_0" departPos="5.10" departSpeed="0.00" departDelay="0.00" arrival="19.00" arrivalLane="28805008_0" arrivalPos="36.88" arrivalSpeed="13.11" duration="16.00" routeLength="132.59" waitingTime="0.00" waitingCount="0" stopTime="0.00" timeLoss="5.05" rerouteNo="0" devices="tripinfo_driver_19" vType="DEFAULT_VEHTYPE" speedFactor="1.01" vaporized="traci"/>
    <tripinfo id="driver_61" depart="6.00" departLane="88572877#0_0" departPos="5.10" departSpeed="0.00" departDelay="0.00" arrival="19.00" arrivalLane="88572877#0_0" arrivalPos="145.48" arrivalSpeed="17.30" duration="13.00" routeLength="140.38" waitingTime="0.00" waitingCount="0" stopTime="0.00" timeLoss="5.60" rerouteNo="0" devices="tripinfo_driver_61" vType="DEFAULT_VEHTYPE" speedFactor="0.99" vaporized="traci"/>
    <tripinfo id="driver_9" depart="2.00" departLane="-27398000_0" departPos="5.10" departSpeed="0.00" departDelay="0.00" arrival="20.00" arrivalLane="-8922580_0" arrivalPos="13.18" arrivalSpeed="6.52" duration="18.00" routeLength="141.51" waitingTime="0.00" waitingCount="0" stopTime="0.00" timeLoss="6.42" rerouteNo="0" devices="tripinfo_driver_9" vType="DEFAULT_VEHTYPE" speedFactor="1.03" vaporized="traci"/>
    <tripinfo id="driver_21" depart="3.00" departLane="-399156531#5_0" departPos="5.10" departSpeed="0.00" departDelay="0.00" arrival="20.00" arrivalLane="399156531#5_0" arrivalPos="6.53" arrivalSpeed="5.00" duration="17.00" routeLength="138.23" waitingTime="0.00" waitingCount="0" stopTime="0.00" timeLoss="7.51" rerouteNo="0" devices="tripinfo_driver_21" vType="DEFAULT_VEHTYPE" speedFactor="0.89" vaporized="traci"/>
    <tripinfo id="driver_46" depart="5.00" departLane="408572569_0" departPos="5.10" departSpeed="0.00" departDelay="0.00" arrival="20.00" arrivalLane="397136324#2_1" arrivalPos="1.93" arrivalSpeed="0.00" duration="15.00" routeLength="85.76" waitingTime="3.00" waitingCount="1" stopTime="0.00" timeLoss="9.60" rerouteNo="14" devices="tripinfo_driver_46" vType="DEFAULT_VEHTYPE" speedFactor="0.88" vaporized="traci"/>
    <tripinfo id="driver_55" depart="6.00" departLane="-254756526#2_0" departPos="0.11" departSpeed="0.00" departDelay="0.00" arrival="20.00" arrivalLane="-254396719#1_0" arrivalPos="24.89" arrivalSpeed="16.50" duration="14.00" routeLength="166.47" waitingTime="0.00" waitingCount="0" stopTime="0.00" timeLoss="6.44" rerouteNo="0" devices="tripinfo_driver_55" vType="DEFAULT_VEHTYPE" speedFactor="1.14" vaporized="traci"/>
    <tripinfo id="driver_12" depart="2.00" departLane="-425516650#0_0" departPos="5.10" departSpeed="0.00" departDelay="0.00" arrival="21.00" arrivalLane="-26938155#0_0" arrivalPos="7.74" arrivalSpeed="7.57" duration="19.00" routeLength="169.03" waitingTime="0.00" waitingCount="0" stopTime="0.00" timeLoss="10.33" rerouteNo="0" devices="tripinfo_driver_12" vType="DEFAULT_VEHTYPE" speedFactor="0.99" vaporized="traci"/>
    <tripinfo id="driver_40" depart="4.00" departLane="-51392400#1_0" departPos="5.10" departSpeed="0.00" departDelay="0.00" arrival="21.00" arrivalLane="88572932#1_0" arrivalPos="114.50" arrivalSpeed="25.68" duration="17.00" routeLength="230.70" waitingTime="0.00" waitingCount="0" stopTime="0.00" timeLoss="7.18" rerouteNo="0" devices="tripinfo_driver_40" vType="DEFAULT_VEHTYPE" speedFactor="1.09" vaporized="traci"/>
    <tripinfo id="driver_52" depart="6.00" departLane="-30029703#1_0" departPos="5.10" departSpeed="0.00" departDelay="0.00" arrival="21.00" arrivalLane="-30029703#1_0" arrivalPos="6.33" arrivalSpeed="0.00" duration="15.00" routeLength="1.23" waitingTime="12.00" waitingCount="1" stopTime="0.00" timeLoss="13.91" rerouteNo="0" devices="tripinfo_driver_52" vType="DEFAULT_VEHTYPE" speedFactor="1.00" vaporized="traci"/>
    <tripinfo id="driver_63" depart="6.00" departLane="144489134#2_0" departPos="5.10" departSpeed="0.00" departDelay="0.00" arrival="21.00" arrivalLane="290080810#1_1" arrivalPos="4.11" arrivalSpeed="6.01" duration="15.00" routeLength="137.12" waitingTime="0.00" waitingCount="0" stopTime="0.00" timeLoss="7.02" rerouteNo="0" devices="tripinfo_driver_63" vType="DEFAULT_VEHTYPE" speedFactor="0.88" vaporized="traci"/>
    <tripinfo id="driver_68" depart="21.00" departLane="-30029703#1_0" departPos="5.10" departSpeed="0.00" departDelay="14.00" arrival="22.00" arrivalLane="-30029703#1_0" arrivalPos="5.10" arrivalSpeed="0.00" duration="1.00" routeLength="0.00" waitingTime="0.00" waitingCount="0" stopTime="0.00" timeLoss="0.00" rerouteNo="0" devices="tripinfo_driver_68" vType="DEFAULT_VEHTYPE" speedFactor="0.97" vaporized="traci"/>
    <tripinfo id="driver_1" depart="1.00" departLane="-100400946#1_0" departPos="0.20" departSpeed="0.00" departDelay="0.00" arrival="22.00" arrivalLane=":65295293_10_0" arrivalPos="5.83" arrivalSpeed="7.57" duration="21.00" routeLength="295.19" waitingTime="0.00" waitingCount="0" stopTime="0.00" timeLoss="6.58" rerouteNo="0" devices="tripinfo_driver_1" vType="DEFAULT_VEHTYPE" speedFactor="1.08" vaporized="traci"/>
    <tripinfo id="driver_47" depart="5.00" departLane="-406581247#1_0" departPos="5.10" departSpeed="0.00" departDelay="0.00" arrival="22.00" arrivalLane="-290052331#1_0" arrivalPos="65.92" arrivalSpeed="8.52" duration="17.00" routeLength="122.79" waitingTime="0.00" waitingCount="0" stopTime="0.00" timeLoss="3.09" rerouteNo="0" devices="tripinfo_driver_47" vType="DEFAULT_VEHTYPE" speedFactor="0.85" vaporized="traci"/>
    <tripinfo id="driver_89" depart="9.00" departLane="-598020853#1_0" departPos="5.10" departSpeed="0.00" departDelay="0.00" arrival="23.00" arrivalLane=":65328721_0_1" arrivalPos="9.18" arrivalSpeed="22.47" duration="14.00" routeLength="187.26" waitingTime="0.00" waitingCount="0" stopTime="0.00" timeLoss="4.91" rerouteNo="0" devices="tripinfo_driver_89" vType="DEFAULT_VEHTYPE" speedFactor="0.83" vaporized="traci"/>
    <tripinfo id="driver_110" depart="12.00" departLane="674757878#0_0" departPos="0.20" departSpeed="0.00" departDelay="0.00" arrival="23.00" arrivalLane="674757878#1_2" arrivalPos="0.10" arrivalSpeed="0.00" duration="11.00" routeLength="1.64" waitingTime="8.00" waitingCount="1" stopTime="0.00" timeLoss="9.89" rerouteNo="0" devices="tripinfo_driver_110" vType="DEFAULT_VEHTYPE" speedFactor="1.10" vaporized="traci"/>
    <tripinfo id="driver_56" depart="6.00" departLane="27054209_0" departPos="5.10" departSpeed="0.00" departDelay="0.00" arrival="25.00" arrivalLane="1041357578#1_0" arrivalPos="0.46" arrivalSpeed="0.00" duration="19.00" routeLength="121.37" waitingTime="5.00" waitingCount="1" stopTime="0.00" timeLoss="12.66" rerouteNo="0" devices="tripinfo_driver_56" vType="DEFAULT_VEHTYPE" speedFactor="1.02" vaporized="traci"/>
    <tripinfo id="driver_4" depart="1.00" departLane="406581246_0" departPos="5.10" departSpeed="0.00" departDelay="0.00" arrival="26.00" arrivalLane="989334074#0_0" arrivalPos="49.93" arrivalSpeed="8.43" duration="25.00" routeLength="187.63" waitingTime="0.00" waitingCount="0" stopTime="0.00" timeLoss="3.59" rerouteNo="0" devices="tripinfo_driver_4" vType="DEFAULT_VEHTYPE" speedFactor="1.05" vaporized="traci"/>
    <tripinfo id="driver_76" depart="7.00" departLane="254758124#1_0" departPos="1.45" departSpeed="0.00" departDelay="0.00" arrival="26.00" arrivalLane="254758124#1_0" arrivalPos="1.45" arrivalSpeed="0.00" duration="19.00" routeLength="0.00" waitingTime="18.00" waitingCount="1" stopTime="0.00" timeLoss="18.00" rerouteNo="0" devices="tripinfo_driver_76" vType="DEFAULT_VEHTYPE" speedFactor="1.09" vaporized="traci"/>
    <tripinfo id="driver_97" depart="10.00" departLane="1030276936#1_0" departPos="5.10" departSpeed="0.00" departDelay="0.00" arrival="26.00" arrivalLane="1030276936#1_2" arrivalPos="85.89" arrivalSpeed="0.00" duration="16.00" routeLength="80.79" waitingTime="4.00" waitingCount="1" stopTime="0.00" timeLoss="11.59" rerouteNo="0" devices="tripinfo_driver_97" vType="DEFAULT_VEHTYPE" speedFactor="1.06" vaporized="traci"/>
    <tripinfo id="driver_74" depart="7.00" departLane="224316520_0" departPos="5.10" departSpeed="0.00" departDelay="0.00" arrival="27.00" arrivalLane="406944778_0" arrivalPos="27.17" arrivalSpeed="0.00" duration="20.00" routeLength="79.65" waitingTime="6.00" waitingCount="1" stopTime="0.00" timeLoss="16.08" rerouteNo="0" devices="tripinfo_driver_74" vType="DEFAULT_VEHTYPE" speedFactor="0.98" vaporized="traci"/>
    <tripinfo id="driver_77" depart="7.00" departLane="-228201785#1_0" departPos="5.10" departSpeed="0.00" departDelay="0.00" arrival="27.00" arrivalLane="619979111#0_0" arrivalPos="12.15" arrivalSpeed="18.51" duration="20.00" routeLength="180.00" waitingTime="0.00" waitingCount="0" stopTime="0.00" timeLoss="10.41" rerouteNo="0" devices="tripinfo_driver_77" vType="DEFAULT_VEHTYPE" speedFactor="1.03" vaporized="traci"/>
    <tripinfo id="driver_94" depart="10.00" departLane="-204967524#2_0" departPos="0.20" departSpeed="0.00" departDelay="0.00" arrival="27.00" arrivalLane="-1047613735#1_0" arrivalPos="0.20" arrivalSpeed="5.09" duration="17.00" routeLength="132.86" waitingTime="0.00" waitingCount="0" stopTime="0.00" timeLoss="3.36" rerouteNo="0" devices="tripinfo_driver_94" vType="DEFAULT_VEHTYPE" speedFactor="0.91" vaporized=""/>
    <tripinfo id="driver_101" depart="11.00" departLane="-399142440#0_0" departPos="2.07" departSpeed="0.00" departDelay="0.00" arrival="28.00" arrivalLane="-399142440#0_0" arrivalPos="2.07" arrivalSpeed="0.00" duration="17.00" routeLength="0.00" waitingTime="16.00" waitingCount="1" stopTime="0.00" timeLoss="16.00" rerouteNo="0" devices="tripinfo_driver_101" vType="DEFAULT_VEHTYPE" speedFactor="1.07" vaporized="traci"/>
    <tripinfo id="driver_102" depart="11.00" departLane="425516639#1_0" departPos="5.10" departSpeed="0.00" departDelay="0.00" arrival="28.00" arrivalLane="425516635#1_0" arrivalPos="63.56" arrivalSpeed="16.53" duration="17.00" routeLength="154.79" waitingTime="0.00" waitingCount="0" stopTime="0.00" timeLoss="6.33" rerouteNo="0" devices="tripinfo_driver_102" vType="DEFAULT_VEHTYPE" speedFactor="1.01" vaporized="traci"/>
    <tripinfo id="driver_32" depart="3.00" departLane="527857425#2_0" departPos="5.10" departSpeed="0.00" departDelay="0.00" arrival="29.00" arrivalLane="527857425#3_0" arrivalPos="3.36" arrivalSpeed="0.00" duration="26.00" routeLength="36.51" waitingTime="18.00" waitingCount="1" stopTime="0.00" timeLoss="21.72" rerouteNo="0" devices="tripinfo_driver_32" vType="DEFAULT_VEHTYPE" speedFactor="0.99" vaporized="traci"/>
    <tripinfo id="driver_60" depart="6.00" departLane="-8921866_0" departPos="5.10" departSpeed="0.00" departDelay="0.00" arrival="29.00" arrivalLane=":3999675134_0_1" arrivalPos="5.76" arrivalSpeed="9.43" duration="23.00" routeLength="343.44" waitingTime="0.00" waitingCount="0" stopTime="0.00" timeLoss="6.78" rerouteNo="0" devices="tripinfo_driver_60" vType="DEFAULT_VEHTYPE" speedFactor="1.02" vaporized="traci"/>
    <tripinfo id="driver_79" depart="8.00" departLane="-30029878#10_0" departPos="5.10" departSpeed="0.00" departDelay="0.00" arrival="29.00" arrivalLane=":65351268_19_0" arrivalPos="0.10" arrivalSpeed="2.98" duration="21.00" routeLength="165.64" waitingTime="0.00" waitingCount="0" stopTime="0.00" timeLoss="6.36" rerouteNo="0" devices="tripinfo_driver_79" vType="DEFAULT_VEHTYPE" speedFactor="1.02" vaporized="traci"/>
    <tripinfo id="driver_96" depart="10.00" departLane="770522137#2_0" departPos="5.10" departSpeed="0.00" departDelay="0.00" arrival="29.00" arrivalLane="-27166421#3_0" arrivalPos="31.10" arrivalSpeed="11.76" duration="19.00" routeLength="167.35" waitingTime="0.00" waitingCount="0" stopTime="0.00" timeLoss="6.57" rerouteNo="0" devices="tripinfo_driver_96" vType="DEFAULT_VEHTYPE" speedFactor="1.10" vaporized="traci"/>
    <tripinfo id="driver_10" depart="2.00" departLane="87297164#1_0" departPos="5.10" departSpeed="0.00" departDelay="0.00" arrival="29.00" arrivalLane="-35977367#2_0" arrivalPos="1.01" arrivalSpeed="7.43" duration="27.00" routeLength="414.61" waitingTime="0.00" waitingCount="0" stopTime="0.00" timeLoss="8.26" rerouteNo="0" devices="tripinfo_driver_10" vType="DEFAULT_VEHTYPE" speedFactor="1.05" vaporized=""/>
    <tripinfo id="driver_36" depart="4.00" departLane="425516646_0" departPos="5.10" departSpeed="0.00" departDelay="0.00" arrival="30.00" arrivalLane=":7233764932_0_1" arrivalPos="0.48" arrivalSpeed="0.00" duration="26.00" routeLength="255.50" waitingTime="6.00" waitingCount="1" stopTime="0.00" timeLoss="14.57" rerouteNo="0" devices="tripinfo_driver_36" vType="DEFAULT_VEHTYPE" speedFactor="1.10" vaporized="traci"/>
    <tripinfo id="driver_92" depart="9.00" departLane="397144558#1_0" departPos="0.12" departSpeed="0.00" departDelay="0.00" arrival="30.00" arrivalLane="397144558#1_0" arrivalPos="0.12" arrivalSpeed="0.00" duration="21.00" routeLength="0.00" waitingTime="20.00" waitingCount="1" stopTime="0.00" timeLoss="20.00" rerouteNo="0" devices="tripinfo_driver_92" vType="DEFAULT_VEHTYPE" speedFactor="1.06" vaporized="traci"/>
    <tripinfo id="driver_16" depart="2.00" departLane="736374827#0_0" departPos="5.10" departSpeed="0.00" departDelay="0.00" arrival="31.00" arrivalLane="736374827#1_0" arrivalPos="0.99" arrivalSpeed="0.00" duration="29.00" routeLength="18.47" waitingTime="22.00" waitingCount="1" stopTime="0.00" timeLoss="27.29" rerouteNo="0" devices="tripinfo_driver_16" vType="DEFAULT_VEHTYPE" speedFactor="0.94" vaporized="traci"/>
    <tripinfo id="driver_72" depart="7.00" departLane="680243311#1_0" departPos="5.10" departSpeed="0.00" departDelay="0.00" arrival="31.00" arrivalLane="766116626#1_0" arrivalPos="0.02" arrivalSpeed="0.64" duration="24.00" routeLength="226.21" waitingTime="0.00" waitingCount="0" stopTime="0.00" timeLoss="12.35" rerouteNo="0" devices="tripinfo_driver_72" vType="DEFAULT_VEHTYPE" speedFactor="0.98" vaporized="traci"/>
    <tripinfo id="driver_78" depart="7.00" departLane="-88572914#1_0" departPos="5.10" departSpeed="0.00" departDelay="0.00" arrival="31.00" arrivalLane="417087485_0" arrivalPos="9.62" arrivalSpeed="13.13" duration="24.00" routeLength="432.22" waitingTime="0.00" waitingCount="0" stopTime="0.00" timeLoss="7.41" rerouteNo="0" devices="tripinfo_driver_78" vType="DEFAULT_VEHTYPE" speedFactor="1.00" vaporized="traci"/>
    <tripinfo id="driver_98" depart="10.00" departLane="620169771#4_0" departPos="5.10" departSpeed="0.00" departDelay="0.00" arrival="31.00" arrivalLane=":7233943453_0_2" arrivalPos="0.25" arrivalSpeed="0.00" duration="21.00" routeLength="82.21" waitingTime="8.00" waitingCount="1" stopTime="0.00" timeLoss="13.59" rerouteNo="0" devices="tripinfo_driver_98" vType="DEFAULT_VEHTYPE" speedFactor="0.96" vaporized="traci"/>
    <tripinfo id="driver_30" depart="3.00" departLane="627329159#0_0" departPos="2.62" departSpeed="0.00" departDelay="0.00" arrival="33.00" arrivalLane=":1723739163_5_0" arrivalPos="12.94" arrivalSpeed="7.23" duration="30.00" routeLength="270.14" waitingTime="0.00" waitingCount="0" stopTime="0.00" timeLoss="14.80" rerouteNo="0" devices="tripinfo_driver_30" vType="DEFAULT_VEHTYPE" speedFactor="1.01" vaporized="traci"/>
    <tripinfo id="driver_24" depart="3.00" departLane="254758114#3_0" departPos="0.74" departSpeed="0.00" departDelay="0.00" arrival="33.00" arrivalLane="27166466#5_0" arrivalPos="87.31" arrivalSpeed="0.03" duration="30.00" routeLength="228.01" waitingTime="1.00" waitingCount="1" stopTime="0.00" timeLoss="9.69" rerouteNo="0" devices="tripinfo_driver_24" vType="DEFAULT_VEHTYPE" speedFactor="0.92" vaporized="traci"/>
    <tripinfo id="driver_31" depart="3.00" departLane="122498865_0" departPos="5.10" departSpeed="0.00" departDelay="0.00" arrival="33.00" arrivalLane="-449201857_1" arrivalPos="4.15" arrivalSpeed="6.74" duration="30.00" routeLength="246.72" waitingTime="3.00" waitingCount="1" stopTime="0.00" timeLoss="18.15" rerouteNo="0" devices="tripinfo_driver_31" vType="DEFAULT_VEHTYPE" speedFactor="1.17" vaporized="traci"/>
    <tripinfo id="driver_95" depart="10.00" departLane="-1020512097#1_0" departPos="1.88" departSpeed="0.00" departDelay="0.00" arrival="33.00" arrivalLane="1020512097#1_0" arrivalPos="0.88" arrivalSpeed="0.00" duration="23.00" routeLength="81.09" waitingTime="7.00" waitingCount="1" stopTime="0.00" timeLoss="14.59" rerouteNo="0" devices="tripinfo_driver_95" vType="DEFAULT_VEHTYPE" speedFactor="1.12" vaporized="traci"/>
    <tripinfo id="driver_37" depart="4.00" departLane="27398045#0_0" departPos="0.20" departSpeed="0.00" departDelay="0.00" arrival="34.00" arrivalLane="27398045#1_1" arrivalPos="122.19" arrivalSpeed="0.00" duration="30.00" routeLength="123.00" waitingTime="13.00" waitingCount="1" stopTime="0.00" timeLoss="19.17" rerouteNo="0" devices="tripinfo_driver_37" vType="DEFAULT_VEHTYPE" speedFactor="0.90" vaporized="traci"/>
    <tripinfo id="driver_48" depart="5.00" departLane="398675749#1_0" departPos="5.10" departSpeed="0.00" departDelay="0.00" arrival="34.00" arrivalLane="980893266_2" arrivalPos="83.30" arrivalSpeed="3.34" duration="29.00" routeLength="184.98" waitingTime="0.00" waitingCount="0" stopTime="0.00" timeLoss="3.80" rerouteNo="0" devices="tripinfo_driver_48" vType="DEFAULT_VEHTYPE" speedFactor="0.85" vaporized="traci"/>
    <tripinfo id="driver_73" depart="7.00" departLane="111586257#0_0" departPos="0.20" departSpeed="0.00" departDelay="0.00" arrival="34.00" arrivalLane="111586257#1_0" arrivalPos="121.77" arrivalSpeed="0.00" duration="27.00" routeLength="122.10" waitingTime="11.00" waitingCount="1" stopTime="0.00" timeLoss="20.68" rerouteNo="0" devices="tripinfo_driver_73" vType="DEFAULT_VEHTYPE" speedFactor="1.03" vaporized="traci"/>
    <tripinfo id="driver_121" depart="33.00" departLane="-225806042#1_0" departPos="5.10" departSpeed="0.00" departDelay="0.00" arrival="34.00" arrivalLane="-225806042#1_0" arrivalPos="5.10" arrivalSpeed="0.00" duration="1.00" routeLength="0.00" waitingTime="0.00" waitingCount="0" stopTime="0.00" timeLoss="0.00" rerouteNo="0" devices="tripinfo_driver_121" vType="DEFAULT_VEHTYPE" speedFactor="1.12" vaporized="traci"/>
    <tripinfo id="driver_5" depart="1.00" departLane="934194966#0_0" departPos="5.10" departSpeed="0.00" departDelay="0.00" arrival="35.00" arrivalLane="934194966#1_0" arrivalPos="2.33" arrivalSpeed="0.00" duration="34.00" routeLength="48.13" waitingTime="24.00" waitingCount="1" stopTime="0.00" timeLoss="30.56" rerouteNo="0" devices="tripinfo_driver_5" vType="DEFAULT_VEHTYPE" speedFactor="0.89" vaporized="traci"/>
    <tripinfo id="driver_27" depart="3.00" departLane="-425624293_0" departPos="5.10" departSpeed="0.00" departDelay="0.00" arrival="35.00" arrivalLane="290080810#1_2" arrivalPos="86.64" arrivalSpeed="4.55" duration="32.00" routeLength="311.25" waitingTime="0.00" waitingCount="0" stopTime="0.00" timeLoss="16.62" rerouteNo="0" devices="tripinfo_driver_27" vType="DEFAULT_VEHTYPE" speedFactor="0.93" vaporized="traci"/>
    <tripinfo id="driver_81" depart="8.00" departLane="8919205#1_0" departPos="5.10" departSpeed="0.00" departDelay="0.00" arrival="35.00" arrivalLane="706527718#0_0" arrivalPos="105.15" arrivalSpeed="0.00" duration="27.00" routeLength="122.50" waitingTime="12.00" waitingCount="1" stopTime="0.00" timeLoss="21.20" rerouteNo="0" devices="tripinfo_driver_81" vType="DEFAULT_VEHTYPE" speedFactor="1.15" vaporized="traci"/>
    <tripinfo id="driver_87" depart="8.00" departLane="563926241#1_0" departPos="5.10" departSpeed="0.00" departDelay="0.00" arrival="35.00" arrivalLane="563926243#1_0" arrivalPos="2.82" arrivalSpeed="0.00" duration="27.00" routeLength="123.00" waitingTime="10.00" waitingCount="1" stopTime="0.00" timeLoss="17.29" rerouteNo="0" devices="tripinfo_driver_87" vType="DEFAULT_VEHTYPE" speedFactor="1.02" vaporized="traci"/>
    <tripinfo id="driver_15" depart="2.00" departLane="1032777738_0" departPos="5.10" departSpeed="0.00" departDelay="0.00" arrival="36.00" arrivalLane="1032777739#0_1" arrivalPos="5.89" arrivalSpeed="0.00" duration="34.00" routeLength="39.65" waitingTime="24.00" waitingCount="1" stopTime="0.00" timeLoss="28.29" rerouteNo="0" devices="tripinfo_driver_15" vType="DEFAULT_VEHTYPE" speedFactor="0.94" vaporized="traci"/>